<event>
 6   1  0.1010085E+08  0.1740008E+03  0.7818608E-02  0.1078737E+00
       11   -1    0    0    0    0  0.00000000000E+00  0.00000000000E+00  0.10499998757E+01  0.10500000000E+01  0.51100000000E-03 0. -1.
  9000002   -1    0    0    0    0  0.00000000000E+00  0.00000000000E+00 -0.50581761002E-12  0.17400000000E+03  0.17400000000E+03 0. -1.
       11    1    1    2    0    0  0.83141921067E-03 -0.13402596482E-02  0.51941850300E+00  0.51942114890E+00  0.51100000000E-03 0. -1.
  9000002    1    1    2    0    0  0.54927227962E-02  0.19672941646E-02  0.11014375864E-02  0.17400000010E+03  0.17400000000E+03 0. -1.
       11    1    1    2    0    0 -0.18107683201E-02 -0.14999662554E-01  0.38876301559E+00  0.38905682383E+00  0.51100000000E-03 0. -1.
      -11    1    1    2    0    0 -0.45133736868E-02  0.14372628038E-01  0.14071691948E+00  0.14152192596E+00  0.51100000000E-03 0.  1.
<mgrwt>
<rscale>  0 0.17400077E+03</rscale>
<asrwt>0</asrwt>
<pdfrwt beam="1">  1       11 0.10000000E+01 0.17400077E+03</pdfrwt>
<pdfrwt beam="2">  1  9000002 0.10000000E+01 0.17400077E+03</pdfrwt>
<totfact> 0.10000000E+01</totfact>
</mgrwt>
</event>
<event>
 6   1  0.1010085E+08  0.1740019E+03  0.7818608E-02  0.1078736E+00
       11   -1    0    0    0    0  0.00000000000E+00  0.00000000000E+00  0.10499998757E+01  0.10500000000E+01  0.51100000000E-03 0.  1.
  9000002   -1    0    0    0    0  0.00000000000E+00  0.00000000000E+00 -0.50581761002E-12  0.17400000000E+03  0.17400000000E+03 0.  1.
       11    1    1    2    0    0 -0.97824490430E-02  0.85622233514E-02  0.80931665273E+00  0.80942122129E+00  0.51100000000E-03 0.  1.
  9000002    1    1    2    0    0  0.92660694969E-02  0.83921888083E-02  0.15011464684E-02  0.17400000046E+03  0.17400000000E+03 0.  1.
       11    1    1    2    0    0 -0.92713665300E-03 -0.30922963431E-02  0.16859520381E+00  0.16862688322E+00  0.51100000000E-03 0.  1.
      -11    1    1    2    0    0  0.14435161991E-02 -0.13862115817E-01  0.70586872656E-01  0.71951439903E-01  0.51100000000E-03 0. -1.
<mgrwt>
<rscale>  0 0.17400187E+03</rscale>
<asrwt>0</asrwt>
<pdfrwt beam="1">  1       11 0.10000000E+01 0.17400187E+03</pdfrwt>
<pdfrwt beam="2">  1  9000002 0.10000000E+01 0.17400187E+03</pdfrwt>
<totfact> 0.10000000E+01</totfact>
</mgrwt>
</event>
<event>
 6   1  0.1010085E+08  0.1740008E+03  0.7818608E-02  0.1078737E+00
       11   -1    0    0    0    0  0.00000000000E+00  0.00000000000E+00  0.10499998757E+01  0.10500000000E+01  0.51100000000E-03 0. -1.
  9000002   -1    0    0    0    0  0.00000000000E+00  0.00000000000E+00 -0.50581761002E-12  0.17400000000E+03  0.17400000000E+03 0. -1.
       11    1    1    2    0    0  0.00000000000E+00  0.00000000000E+00  0.51606576757E+00  0.51606598676E+00  0.51100000000E-03 0.  1.
  9000002    1    1    2    0    0  0.11783238018E-01  0.30903303636E-02  0.28483845860E-03  0.17400000043E+03  0.17400000000E+03 0. -1.
       11    1    1    2    0    0 -0.12826330255E-01 -0.60878720844E-02  0.43669999168E+00  0.43693102521E+00  0.51100000000E-03 0. -1.
      -11    1    1    2    0    0  0.10430922378E-02  0.29975417208E-02  0.96949277950E-01  0.97002561379E-01  0.51100000000E-03 0.  1.
<mgrwt>
<rscale>  0 0.17400076E+03</rscale>
<asrwt>0</asrwt>
<pdfrwt beam="1">  1       11 0.10000000E+01 0.17400076E+03</pdfrwt>
<pdfrwt beam="2">  1  9000002 0.10000000E+01 0.17400076E+03</pdfrwt>
<totfact> 0.10000000E+01</totfact>
</mgrwt>
</event>
<event>
 6   1  0.1010085E+08  0.1740006E+03  0.7818608E-02  0.1078737E+00
       11   -1    0    0    0    0  0.00000000000E+00  0.00000000000E+00  0.10499998757E+01  0.10500000000E+01  0.51100000000E-03 0.  1.
  9000002   -1    0    0    0    0  0.00000000000E+00  0.00000000000E+00 -0.50581761002E-12  0.17400000000E+03  0.17400000000E+03 0. -1.
       11    1    1    2    0    0  0.71703381416E-02  0.73338041888E-02  0.39818130084E+00  0.39831370537E+00  0.51100000000E-03 0. -1.
  9000002    1    1    2    0    0 -0.93445348285E-05 -0.35171456755E-03  0.23822521903E-03  0.17400000000E+03  0.17400000000E+03 0. -1.
       11    1    1    2    0    0 -0.69413498118E-03  0.26741622072E-03  0.19606786355E+00  0.19606994051E+00  0.51100000000E-03 0.  1.
      -11    1    1    2    0    0 -0.64668586256E-02 -0.72495058420E-02  0.45551248605E+00  0.45561635360E+00  0.51100000000E-03 0.  1.
<mgrwt>
<rscale>  0 0.17400059E+03</rscale>
<asrwt>0</asrwt>
<pdfrwt beam="1">  1       11 0.10000000E+01 0.17400059E+03</pdfrwt>
<pdfrwt beam="2">  1  9000002 0.10000000E+01 0.17400059E+03</pdfrwt>
<totfact> 0.10000000E+01</totfact>
</mgrwt>
</event>
<event>
 6   1  0.1010085E+08  0.1740020E+03  0.7818608E-02  0.1078736E+00
       11   -1    0    0    0    0  0.00000000000E+00  0.00000000000E+00  0.10499998757E+01  0.10500000000E+01  0.51100000000E-03 0. -1.
  9000002   -1    0    0    0    0  0.00000000000E+00  0.00000000000E+00 -0.50581761002E-12  0.17400000000E+03  0.17400000000E+03 0.  1.
       11    1    1    2    0    0 -0.12032533350E-02 -0.75323501909E-02  0.75030635656E-01  0.75419105843E-01  0.51100000000E-03 0. -1.
  9000002    1    1    2    0    0  0.46663750463E-02  0.14255333128E-02  0.14408194232E-02  0.17400000007E+03  0.17400000000E+03 0.  1.
       11    1    1    2    0    0 -0.53850689746E-02 -0.10510177717E-01  0.82936849078E+00  0.82945272163E+00  0.51100000000E-03 0. -1.
      -11    1    1    2    0    0  0.19219472633E-02  0.16616994595E-01  0.14415992980E+00  0.14512809815E+00  0.51100000000E-03 0.  1.
<mgrwt>
<rscale>  0 0.17400196E+03</rscale>
<asrwt>0</asrwt>
<pdfrwt beam="1">  1       11 0.10000000E+01 0.17400196E+03</pdfrwt>
<pdfrwt beam="2">  1  9000002 0.10000000E+01 0.17400196E+03</pdfrwt>
<totfact> 0.10000000E+01</totfact>
</mgrwt>
</event>
<event>
 6   1  0.1010085E+08  0.1740005E+03  0.7818608E-02  0.1078737E+00
       11   -1    0    0    0    0  0.00000000000E+00  0.00000000000E+00  0.10499998757E+01  0.10500000000E+01  0.51100000000E-03 0.  1.
  9000002   -1    0    0    0    0  0.00000000000E+00  0.00000000000E+00 -0.50581761002E-12  0.17400000000E+03  0.17400000000E+03 0. -1.
       11    1    1    2    0    0  0.49713255116E-03 -0.37761076877E-02  0.40304381422E+00  0.40306213346E+00  0.51100000000E-03 0.  1.
  9000002    1    1    2    0    0 -0.61921465068E-02  0.36696759064E-02  0.20198614898E-02  0.17400000016E+03  0.17400000000E+03 0. -1.
       11    1    1    2    0    0 -0.16249686398E-01  0.16718889656E-01  0.29357231758E+00  0.29449709735E+00  0.51100000000E-03 0. -1.
      -11    1    1    2    0    0  0.21944700353E-01 -0.16612457874E-01  0.35136388238E+00  0.35244060860E+00  0.51100000000E-03 0.  1.
<mgrwt>
<rscale>  0 0.17400046E+03</rscale>
<asrwt>0</asrwt>
<pdfrwt beam="1">  1       11 0.10000000E+01 0.17400046E+03</pdfrwt>
<pdfrwt beam="2">  1  9000002 0.10000000E+01 0.17400046E+03</pdfrwt>
<totfact> 0.10000000E+01</totfact>
</mgrwt>
</event>
<event>
 6   1  0.1010085E+08  0.1740007E+03  0.7818608E-02  0.1078737E+00
       11   -1    0    0    0    0  0.00000000000E+00  0.00000000000E+00  0.10499998757E+01  0.10500000000E+01  0.51100000000E-03 0. -1.
  9000002   -1    0    0    0    0  0.00000000000E+00  0.00000000000E+00 -0.50581761002E-12  0.17400000000E+03  0.17400000000E+03 0.  1.
       11    1    1    2    0    0  0.77939070456E-03 -0.30375370840E-02  0.48592825609E+00  0.48593864352E+00  0.51100000000E-03 0. -1.
  9000002    1    1    2    0    0  0.57580110841E-02 -0.91598014801E-02  0.15530061694E-02  0.17400000034E+03  0.17400000000E+03 0.  1.
       11    1    1    2    0    0 -0.58073661958E-02 -0.10202712710E-01  0.37843607350E+00  0.37861846718E+00  0.51100000000E-03 0. -1.
      -11    1    1    2    0    0 -0.73003559286E-03  0.22400051274E-01  0.18408253990E+00  0.18544254600E+00  0.51100000000E-03 0.  1.
<mgrwt>
<rscale>  0 0.17400067E+03</rscale>
<asrwt>0</asrwt>
<pdfrwt beam="1">  1       11 0.10000000E+01 0.17400067E+03</pdfrwt>
<pdfrwt beam="2">  1  9000002 0.10000000E+01 0.17400067E+03</pdfrwt>
<totfact> 0.10000000E+01</totfact>
</mgrwt>
</event>
<event>
 6   1  0.1010085E+08  0.1740007E+03  0.7818608E-02  0.1078737E+00
       11   -1    0    0    0    0  0.00000000000E+00  0.00000000000E+00  0.10499998757E+01  0.10500000000E+01  0.51100000000E-03 0. -1.
  9000002   -1    0    0    0    0  0.00000000000E+00  0.00000000000E+00 -0.50581761002E-12  0.17400000000E+03  0.17400000000E+03 0.  1.
       11    1    1    2    0    0  0.13733266024E-02  0.50410306887E-02  0.87698490885E-01  0.87855474731E-01  0.51100000000E-03 0.  1.
  9000002    1    1    2    0    0 -0.95042751861E-03 -0.31494449186E-03  0.18181789342E-03  0.17400000000E+03  0.17400000000E+03 0.  1.
       11    1    1    2    0    0  0.00000000000E+00  0.00000000000E+00  0.50137545695E+00  0.50137569665E+00  0.51100000000E-03 0.  1.
      -11    1    1    2    0    0 -0.42289908380E-03 -0.47260861968E-02  0.46074410993E+00  0.46076882564E+00  0.51100000000E-03 0. -1.
<mgrwt>
<rscale>  0 0.17400072E+03</rscale>
<asrwt>0</asrwt>
<pdfrwt beam="1">  1       11 0.10000000E+01 0.17400072E+03</pdfrwt>
<pdfrwt beam="2">  1  9000002 0.10000000E+01 0.17400072E+03</pdfrwt>
<totfact> 0.10000000E+01</totfact>
</mgrwt>
</event>
<event>
 6   1  0.1010085E+08  0.1740010E+03  0.7818608E-02  0.1078737E+00
       11   -1    0    0    0    0  0.00000000000E+00  0.00000000000E+00  0.10499998757E+01  0.10500000000E+01  0.51100000000E-03 0. -1.
  9000002   -1    0    0    0    0  0.00000000000E+00  0.00000000000E+00 -0.50581761002E-12  0.17400000000E+03  0.17400000000E+03 0. -1.
       11    1    1    2    0    0  0.13495609954E-02  0.77280304993E-02  0.59110515413E+00  0.59115743092E+00  0.51100000000E-03 0. -1.
  9000002    1    1    2    0    0 -0.41858420328E-03 -0.24849196463E-03  0.13230378323E-03  0.17400000000E+03  0.17400000000E+03 0. -1.
       11    1    1    2    0    0 -0.16891529744E-02 -0.12349583528E-02  0.15178039407E+00  0.15179567684E+00  0.51100000000E-03 0. -1.
      -11    1    1    2    0    0  0.75817618236E-03 -0.62445801819E-02  0.30698202367E+00  0.30704689151E+00  0.51100000000E-03 0.  1.
<mgrwt>
<rscale>  0 0.17400100E+03</rscale>
<asrwt>0</asrwt>
<pdfrwt beam="1">  1       11 0.10000000E+01 0.17400100E+03</pdfrwt>
<pdfrwt beam="2">  1  9000002 0.10000000E+01 0.17400100E+03</pdfrwt>
<totfact> 0.10000000E+01</totfact>
</mgrwt>
</event>
<event>
 6   1  0.1248560E+08  0.1740007E+03  0.7818608E-02  0.1078737E+00
       11   -1    0    0    0    0  0.00000000000E+00  0.00000000000E+00  0.10499998757E+01  0.10500000000E+01  0.51100000000E-03 0.  1.
  9000002   -1    0    0    0    0  0.00000000000E+00  0.00000000000E+00 -0.50581761002E-12  0.17400000000E+03  0.17400000000E+03 0. -1.
       11    1    1    2    0    0  0.24334550190E-02 -0.57086603245E-02  0.50080807368E+00  0.50084678125E+00  0.51100000000E-03 0.  1.
  9000002    1    1    2    0    0  0.45480439100E-02  0.28088719443E-02  0.21814734451E-03  0.17400000008E+03  0.17400000000E+03 0. -1.
       11    1    1    2    0    0 -0.23819671637E-02  0.38564922685E-02  0.47825996089E+00  0.47828171365E+00  0.51100000000E-03 0.  1.
      -11    1    1    2    0    0 -0.45995317654E-02 -0.95670388835E-03  0.70713693749E-01  0.70871422859E-01  0.51100000000E-03 0. -1.
<mgrwt>
<rscale>  0 0.17400072E+03</rscale>
<asrwt>0</asrwt>
<pdfrwt beam="1">  1       11 0.10000000E+01 0.17400072E+03</pdfrwt>
<pdfrwt beam="2">  1  9000002 0.10000000E+01 0.17400072E+03</pdfrwt>
<totfact> 0.10000000E+01</totfact>
</mgrwt>
</event>
<event>
 6   1  0.1010085E+08  0.1740012E+03  0.7818608E-02  0.1078737E+00
       11   -1    0    0    0    0  0.00000000000E+00  0.00000000000E+00  0.10499998757E+01  0.10500000000E+01  0.51100000000E-03 0.  1.
  9000002   -1    0    0    0    0  0.00000000000E+00  0.00000000000E+00 -0.50581761002E-12  0.17400000000E+03  0.17400000000E+03 0.  1.
       11    1    1    2    0    0 -0.76166586305E-02 -0.97033656855E-02  0.39139053608E+00  0.39158521633E+00  0.51100000000E-03 0.  1.
  9000002    1    1    2    0    0  0.48055835085E-03 -0.85388335374E-02  0.39037268989E-02  0.17400000025E+03  0.17400000000E+03 0.  1.
       11    1    1    2    0    0  0.52882258845E-02 -0.13920517864E-02  0.27169607291E-02  0.61274902456E-02  0.51100000000E-03 0. -1.
      -11    1    1    2    0    0  0.18478743952E-02  0.19634251009E-01  0.65198865195E+00  0.65228703946E+00  0.51100000000E-03 0.  1.
<mgrwt>
<rscale>  0 0.17400121E+03</rscale>
<asrwt>0</asrwt>
<pdfrwt beam="1">  1       11 0.10000000E+01 0.17400121E+03</pdfrwt>
<pdfrwt beam="2">  1  9000002 0.10000000E+01 0.17400121E+03</pdfrwt>
<totfact> 0.10000000E+01</totfact>
</mgrwt>
</event>
<event>
 6   1  0.1010085E+08  0.1740019E+03  0.7818608E-02  0.1078736E+00
       11   -1    0    0    0    0  0.00000000000E+00  0.00000000000E+00  0.10499998757E+01  0.10500000000E+01  0.51100000000E-03 0.  1.
  9000002   -1    0    0    0    0  0.00000000000E+00  0.00000000000E+00 -0.50581761002E-12  0.17400000000E+03  0.17400000000E+03 0. -1.
       11    1    1    2    0    0  0.16881586798E-03  0.32338740803E-03  0.16298934746E+00  0.16299055673E+00  0.51100000000E-03 0.  1.
  9000002    1    1    2    0    0  0.60656985237E-02 -0.20088226162E-02  0.56031665661E-03  0.17400000012E+03  0.17400000000E+03 0. -1.
       11    1    1    2    0    0  0.19193581585E-02 -0.77467313422E-02  0.68700320651E-01  0.69164231784E-01  0.51100000000E-03 0. -1.
      -11    1    1    2    0    0 -0.81538725502E-02  0.94321665503E-02  0.81774989089E+00  0.81784509326E+00  0.51100000000E-03 0.  1.
<mgrwt>
<rscale>  0 0.17400190E+03</rscale>
<asrwt>0</asrwt>
<pdfrwt beam="1">  1       11 0.10000000E+01 0.17400190E+03</pdfrwt>
<pdfrwt beam="2">  1  9000002 0.10000000E+01 0.17400190E+03</pdfrwt>
<totfact> 0.10000000E+01</totfact>
</mgrwt>
</event>
<event>
 6   1  0.1010085E+08  0.1740026E+03  0.7818608E-02  0.1078735E+00
       11   -1    0    0    0    0  0.00000000000E+00  0.00000000000E+00  0.10499998757E+01  0.10500000000E+01  0.51100000000E-03 0.  1.
  9000002   -1    0    0    0    0  0.00000000000E+00  0.00000000000E+00 -0.50581761002E-12  0.17400000000E+03  0.17400000000E+03 0.  1.
       11    1    1    2    0    0  0.70275364350E-02  0.16017959948E-02  0.83484690560E-01  0.83796817937E-01  0.51100000000E-03 0. -1.
  9000002    1    1    2    0    0 -0.56830869194E-03 -0.34938584093E-01  0.92489712160E-03  0.17400000351E+03  0.17400000000E+03 0.  1.
       11    1    1    2    0    0 -0.80739022670E-04  0.43161006648E-03  0.10712591357E-01  0.10733757082E-01  0.51100000000E-03 0.  1.
      -11    1    1    2    0    0 -0.63784887204E-02  0.32905178032E-01  0.95487769662E+00  0.95546591382E+00  0.51100000000E-03 0.  1.
<mgrwt>
<rscale>  0 0.17400259E+03</rscale>
<asrwt>0</asrwt>
<pdfrwt beam="1">  1       11 0.10000000E+01 0.17400259E+03</pdfrwt>
<pdfrwt beam="2">  1  9000002 0.10000000E+01 0.17400259E+03</pdfrwt>
<totfact> 0.10000000E+01</totfact>
</mgrwt>
</event>
<event>
 6   1  0.1010085E+08  0.1740012E+03  0.7818608E-02  0.1078737E+00
       11   -1    0    0    0    0  0.00000000000E+00  0.00000000000E+00  0.10499998757E+01  0.10500000000E+01  0.51100000000E-03 0.  1.
  9000002   -1    0    0    0    0  0.00000000000E+00  0.00000000000E+00 -0.50581761002E-12  0.17400000000E+03  0.17400000000E+03 0. -1.
       11    1    1    2    0    0 -0.41192518842E-02  0.68393428389E-02  0.64413020315E+00  0.64417988527E+00  0.51100000000E-03 0.  1.
  9000002    1    1    2    0    0  0.11294056874E-02 -0.51186413216E-04  0.13958544107E-03  0.17400000000E+03  0.17400000000E+03 0. -1.
       11    1    1    2    0    0  0.12236482751E-02 -0.24114762495E-02  0.66647058570E-01  0.66703853484E-01  0.51100000000E-03 0.  1.
      -11    1    1    2    0    0  0.17661979218E-02 -0.43766801762E-02  0.33908302849E+00  0.33911625752E+00  0.51100000000E-03 0. -1.
<mgrwt>
<rscale>  0 0.17400118E+03</rscale>
<asrwt>0</asrwt>
<pdfrwt beam="1">  1       11 0.10000000E+01 0.17400118E+03</pdfrwt>
<pdfrwt beam="2">  1  9000002 0.10000000E+01 0.17400118E+03</pdfrwt>
<totfact> 0.10000000E+01</totfact>
</mgrwt>
</event>
<event>
 6   1  0.1010085E+08  0.1740005E+03  0.7818608E-02  0.1078737E+00
       11   -1    0    0    0    0  0.00000000000E+00  0.00000000000E+00  0.10499998757E+01  0.10500000000E+01  0.51100000000E-03 0. -1.
  9000002   -1    0    0    0    0  0.00000000000E+00  0.00000000000E+00 -0.50581761002E-12  0.17400000000E+03  0.17400000000E+03 0. -1.
       11    1    1    2    0    0  0.30007893945E-02  0.69445442423E-03  0.26989823201E+00  0.26991629030E+00  0.51100000000E-03 0. -1.
  9000002    1    1    2    0    0 -0.53587689509E-03 -0.60153846813E-03  0.13810435598E-03  0.17400000000E+03  0.17400000000E+03 0. -1.
       11    1    1    2    0    0  0.38173092554E-02 -0.45288058883E-02  0.36927921492E+00  0.36932706593E+00  0.51100000000E-03 0. -1.
      -11    1    1    2    0    0 -0.62822217548E-02  0.44358899322E-02  0.41068432436E+00  0.41075664185E+00  0.51100000000E-03 0.  1.
<mgrwt>
<rscale>  0 0.17400048E+03</rscale>
<asrwt>0</asrwt>
<pdfrwt beam="1">  1       11 0.10000000E+01 0.17400048E+03</pdfrwt>
<pdfrwt beam="2">  1  9000002 0.10000000E+01 0.17400048E+03</pdfrwt>
<totfact> 0.10000000E+01</totfact>
</mgrwt>
</event>
<event>
 6   1  0.1010085E+08  0.1740016E+03  0.7818608E-02  0.1078736E+00
       11   -1    0    0    0    0  0.00000000000E+00  0.00000000000E+00  0.10499998757E+01  0.10500000000E+01  0.51100000000E-03 0.  1.
  9000002   -1    0    0    0    0  0.00000000000E+00  0.00000000000E+00 -0.50581761002E-12  0.17400000000E+03  0.17400000000E+03 0.  1.
       11    1    1    2    0    0  0.30244331428E-02 -0.77242080892E-02  0.74869421178E+00  0.74874033847E+00  0.51100000000E-03 0.  1.
  9000002    1    1    2    0    0  0.91252989496E-03  0.82311271106E-03  0.12242380011E-02  0.17400000001E+03  0.17400000000E+03 0.  1.
       11    1    1    2    0    0  0.48511377774E-02 -0.77146583005E-02  0.80339975418E-01  0.80856800948E-01  0.51100000000E-03 0. -1.
      -11    1    1    2    0    0 -0.87881008152E-02  0.14615753679E-01  0.21974145046E+00  0.22040285193E+00  0.51100000000E-03 0.  1.
<mgrwt>
<rscale>  0 0.17400160E+03</rscale>
<asrwt>0</asrwt>
<pdfrwt beam="1">  1       11 0.10000000E+01 0.17400160E+03</pdfrwt>
<pdfrwt beam="2">  1  9000002 0.10000000E+01 0.17400160E+03</pdfrwt>
<totfact> 0.10000000E+01</totfact>
</mgrwt>
</event>
<event>
 6   1  0.1010085E+08  0.1740007E+03  0.7818608E-02  0.1078737E+00
       11   -1    0    0    0    0  0.00000000000E+00  0.00000000000E+00  0.10499998757E+01  0.10500000000E+01  0.51100000000E-03 0.  1.
  9000002   -1    0    0    0    0  0.00000000000E+00  0.00000000000E+00 -0.50581761002E-12  0.17400000000E+03  0.17400000000E+03 0.  1.
       11    1    1    2    0    0  0.42568698413E-03 -0.32885754755E-02  0.25779845714E+00  0.25782028928E+00  0.51100000000E-03 0.  1.
  9000002    1    1    2    0    0  0.15686859332E-02 -0.13161020401E-02  0.13693201110E-03  0.17400000001E+03  0.17400000000E+03 0.  1.
       11    1    1    2    0    0  0.96625616759E-03 -0.27877146679E-02  0.49205572149E+00  0.49206483229E+00  0.51100000000E-03 0. -1.
      -11    1    1    2    0    0 -0.29606290850E-02  0.73923921834E-02  0.30000876501E+00  0.30011486633E+00  0.51100000000E-03 0.  1.
<mgrwt>
<rscale>  0 0.17400069E+03</rscale>
<asrwt>0</asrwt>
<pdfrwt beam="1">  1       11 0.10000000E+01 0.17400069E+03</pdfrwt>
<pdfrwt beam="2">  1  9000002 0.10000000E+01 0.17400069E+03</pdfrwt>
<totfact> 0.10000000E+01</totfact>
</mgrwt>
</event>
<event>
 6   1  0.1010085E+08  0.1740008E+03  0.7818608E-02  0.1078737E+00
       11   -1    0    0    0    0  0.00000000000E+00  0.00000000000E+00  0.10499998757E+01  0.10500000000E+01  0.51100000000E-03 0.  1.
  9000002   -1    0    0    0    0  0.00000000000E+00  0.00000000000E+00 -0.50581761002E-12  0.17400000000E+03  0.17400000000E+03 0.  1.
       11    1    1    2    0    0 -0.13745413721E-02  0.46810287765E-02  0.79563926950E-01  0.79714998494E-01  0.51100000000E-03 0.  1.
  9000002    1    1    2    0    0  0.45691712201E-03 -0.33048749712E-03  0.18659590201E-03  0.17400000000E+03  0.17400000000E+03 0.  1.
       11    1    1    2    0    0  0.13009263991E-04  0.97548807282E-03  0.54391717857E+00  0.54391829350E+00  0.51100000000E-03 0.  1.
      -11    1    1    2    0    0  0.90461498612E-03 -0.53260293522E-02  0.42633217424E+00  0.42636670699E+00  0.51100000000E-03 0. -1.
<mgrwt>
<rscale>  0 0.17400084E+03</rscale>
<asrwt>0</asrwt>
<pdfrwt beam="1">  1       11 0.10000000E+01 0.17400084E+03</pdfrwt>
<pdfrwt beam="2">  1  9000002 0.10000000E+01 0.17400084E+03</pdfrwt>
<totfact> 0.10000000E+01</totfact>
</mgrwt>
</event>
<event>
 6   1  0.1010085E+08  0.1740007E+03  0.7818608E-02  0.1078737E+00
       11   -1    0    0    0    0  0.00000000000E+00  0.00000000000E+00  0.10499998757E+01  0.10500000000E+01  0.51100000000E-03 0.  1.
  9000002   -1    0    0    0    0  0.00000000000E+00  0.00000000000E+00 -0.50581761002E-12  0.17400000000E+03  0.17400000000E+03 0. -1.
       11    1    1    2    0    0 -0.70986357789E-02 -0.50315624427E-02  0.39734573456E+00  0.39744131786E+00  0.51100000000E-03 0.  1.
  9000002    1    1    2    0    0  0.12270207717E-02 -0.22751521635E-02  0.41748228859E-03  0.17400000002E+03  0.17400000000E+03 0. -1.
       11    1    1    2    0    0  0.10779399558E-01  0.10075505278E-01  0.49553885410E+00  0.49575874002E+00  0.51100000000E-03 0.  1.
      -11    1    1    2    0    0 -0.49077845512E-02 -0.27687906720E-02  0.15669780471E+00  0.15679992242E+00  0.51100000000E-03 0. -1.
<mgrwt>
<rscale>  0 0.17400070E+03</rscale>
<asrwt>0</asrwt>
<pdfrwt beam="1">  1       11 0.10000000E+01 0.17400070E+03</pdfrwt>
<pdfrwt beam="2">  1  9000002 0.10000000E+01 0.17400070E+03</pdfrwt>
<totfact> 0.10000000E+01</totfact>
</mgrwt>
</event>
<event>
 6   1  0.1010085E+08  0.1740008E+03  0.7818608E-02  0.1078737E+00
       11   -1    0    0    0    0  0.00000000000E+00  0.00000000000E+00  0.10499998757E+01  0.10500000000E+01  0.51100000000E-03 0.  1.
  9000002   -1    0    0    0    0  0.00000000000E+00  0.00000000000E+00 -0.50581761002E-12  0.17400000000E+03  0.17400000000E+03 0.  1.
       11    1    1    2    0    0 -0.63691320414E-02  0.23870035738E-02  0.74813835998E-01  0.75124129303E-01  0.51100000000E-03 0. -1.
  9000002    1    1    2    0    0  0.48305776429E-02  0.62065226913E-02  0.38668472743E-03  0.17400000018E+03  0.17400000000E+03 0.  1.
       11    1    1    2    0    0 -0.62199833735E-05 -0.48606683461E-03  0.52416796850E+00  0.52416844299E+00  0.51100000000E-03 0.  1.
      -11    1    1    2    0    0  0.15447743819E-02 -0.81074594305E-02  0.45063138643E+00  0.45070724953E+00  0.51100000000E-03 0.  1.
<mgrwt>
<rscale>  0 0.17400078E+03</rscale>
<asrwt>0</asrwt>
<pdfrwt beam="1">  1       11 0.10000000E+01 0.17400078E+03</pdfrwt>
<pdfrwt beam="2">  1  9000002 0.10000000E+01 0.17400078E+03</pdfrwt>
<totfact> 0.10000000E+01</totfact>
</mgrwt>
</event>
<event>
 6   1  0.1010085E+08  0.1740007E+03  0.7818608E-02  0.1078737E+00
       11   -1    0    0    0    0  0.00000000000E+00  0.00000000000E+00  0.10499998757E+01  0.10500000000E+01  0.51100000000E-03 0.  1.
  9000002   -1    0    0    0    0  0.00000000000E+00  0.00000000000E+00 -0.50581761002E-12  0.17400000000E+03  0.17400000000E+03 0.  1.
       11    1    1    2    0    0 -0.34522465244E-02  0.97933415126E-02  0.35512243880E+00  0.35527459127E+00  0.51100000000E-03 0.  1.
  9000002    1    1    2    0    0 -0.20404092955E-02  0.17482418530E-02  0.29895672622E-03  0.17400000002E+03  0.17400000000E+03 0.  1.
       11    1    1    2    0    0  0.30721000894E-02 -0.10235083501E-02  0.21651723302E+00  0.21654204831E+00  0.51100000000E-03 0.  1.
      -11    1    1    2    0    0  0.24205557305E-02 -0.10518075016E-01  0.47806124711E+00  0.47818333942E+00  0.51100000000E-03 0. -1.
<mgrwt>
<rscale>  0 0.17400065E+03</rscale>
<asrwt>0</asrwt>
<pdfrwt beam="1">  1       11 0.10000000E+01 0.17400065E+03</pdfrwt>
<pdfrwt beam="2">  1  9000002 0.10000000E+01 0.17400065E+03</pdfrwt>
<totfact> 0.10000000E+01</totfact>
</mgrwt>
</event>
<event>
 6   1  0.1010085E+08  0.1740005E+03  0.7818608E-02  0.1078737E+00
       11   -1    0    0    0    0  0.00000000000E+00  0.00000000000E+00  0.10499998757E+01  0.10500000000E+01  0.51100000000E-03 0.  1.
  9000002   -1    0    0    0    0  0.00000000000E+00  0.00000000000E+00 -0.50581761002E-12  0.17400000000E+03  0.17400000000E+03 0. -1.
       11    1    1    2    0    0  0.62516013429E-02  0.54556383580E-02  0.23644488887E+00  0.23659098272E+00  0.51100000000E-03 0.  1.
  9000002    1    1    2    0    0  0.13796521677E-01 -0.68360267584E-02  0.48357381070E-03  0.17400000068E+03  0.17400000000E+03 0. -1.
       11    1    1    2    0    0 -0.13455870271E-01 -0.39597150642E-02  0.39209399530E+00  0.39234513131E+00  0.51100000000E-03 0.  1.
      -11    1    1    2    0    0 -0.65922527488E-02  0.53401034645E-02  0.42097741767E+00  0.42106320405E+00  0.51100000000E-03 0. -1.
<mgrwt>
<rscale>  0 0.17400051E+03</rscale>
<asrwt>0</asrwt>
<pdfrwt beam="1">  1       11 0.10000000E+01 0.17400051E+03</pdfrwt>
<pdfrwt beam="2">  1  9000002 0.10000000E+01 0.17400051E+03</pdfrwt>
<totfact> 0.10000000E+01</totfact>
</mgrwt>
</event>
<event>
 6   1  0.1010085E+08  0.1740009E+03  0.7818608E-02  0.1078737E+00
       11   -1    0    0    0    0  0.00000000000E+00  0.00000000000E+00  0.10499998757E+01  0.10500000000E+01  0.51100000000E-03 0.  1.
  9000002   -1    0    0    0    0  0.00000000000E+00  0.00000000000E+00 -0.50581761002E-12  0.17400000000E+03  0.17400000000E+03 0.  1.
       11    1    1    2    0    0  0.20717289037E-03 -0.30186068244E-03  0.42051164771E+00  0.42051211756E+00  0.51100000000E-03 0.  1.
  9000002    1    1    2    0    0  0.51201281845E-04 -0.13744181367E-02  0.30177912599E-03  0.17400000001E+03  0.17400000000E+03 0.  1.
       11    1    1    2    0    0  0.19772830500E-02 -0.54035183793E-02  0.66013600761E-01  0.66265860475E-01  0.51100000000E-03 0. -1.
      -11    1    1    2    0    0 -0.22356572223E-02  0.70797971984E-02  0.56317284806E+00  0.56322201627E+00  0.51100000000E-03 0.  1.
<mgrwt>
<rscale>  0 0.17400091E+03</rscale>
<asrwt>0</asrwt>
<pdfrwt beam="1">  1       11 0.10000000E+01 0.17400091E+03</pdfrwt>
<pdfrwt beam="2">  1  9000002 0.10000000E+01 0.17400091E+03</pdfrwt>
<totfact> 0.10000000E+01</totfact>
</mgrwt>
</event>
<event>
 6   1  0.1010085E+08  0.1740008E+03  0.7818608E-02  0.1078737E+00
       11   -1    0    0    0    0  0.00000000000E+00  0.00000000000E+00  0.10499998757E+01  0.10500000000E+01  0.51100000000E-03 0. -1.
  9000002   -1    0    0    0    0  0.00000000000E+00  0.00000000000E+00 -0.50581761002E-12  0.17400000000E+03  0.17400000000E+03 0.  1.
       11    1    1    2    0    0  0.00000000000E+00  0.00000000000E+00  0.52708381025E+00  0.52708400245E+00  0.51100000000E-03 0.  1.
  9000002    1    1    2    0    0 -0.41099038365E-02 -0.47656363966E-02  0.15263801730E-03  0.17400000011E+03  0.17400000000E+03 0.  1.
       11    1    1    2    0    0  0.10605462490E-02  0.78894188208E-02  0.38409094111E+00  0.38417376257E+00  0.51100000000E-03 0. -1.
      -11    1    1    2    0    0  0.30493575875E-02 -0.31237824242E-02  0.13867248628E+00  0.13874212111E+00  0.51100000000E-03 0.  1.
<mgrwt>
<rscale>  0 0.17400079E+03</rscale>
<asrwt>0</asrwt>
<pdfrwt beam="1">  1       11 0.10000000E+01 0.17400079E+03</pdfrwt>
<pdfrwt beam="2">  1  9000002 0.10000000E+01 0.17400079E+03</pdfrwt>
<totfact> 0.10000000E+01</totfact>
</mgrwt>
</event>
<event>
 6   1  0.1010085E+08  0.1740010E+03  0.7818608E-02  0.1078737E+00
       11   -1    0    0    0    0  0.00000000000E+00  0.00000000000E+00  0.10499998757E+01  0.10500000000E+01  0.51100000000E-03 0.  1.
  9000002   -1    0    0    0    0  0.00000000000E+00  0.00000000000E+00 -0.50581761002E-12  0.17400000000E+03  0.17400000000E+03 0. -1.
       11    1    1    2    0    0  0.59598916825E-02  0.81383298292E-02  0.59278928585E+00  0.59287532522E+00  0.51100000000E-03 0.  1.
  9000002    1    1    2    0    0  0.10067565612E-02  0.14230917073E-02  0.28546987882E-03  0.17400000001E+03  0.17400000000E+03 0. -1.
       11    1    1    2    0    0 -0.10840659898E-02 -0.20818519292E-04  0.12360777171E-01  0.12418758664E-01  0.51100000000E-03 0.  1.
      -11    1    1    2    0    0 -0.58825822540E-02 -0.95406030173E-02  0.44456434276E+00  0.44470590715E+00  0.51100000000E-03 0. -1.
<mgrwt>
<rscale>  0 0.17400100E+03</rscale>
<asrwt>0</asrwt>
<pdfrwt beam="1">  1       11 0.10000000E+01 0.17400100E+03</pdfrwt>
<pdfrwt beam="2">  1  9000002 0.10000000E+01 0.17400100E+03</pdfrwt>
<totfact> 0.10000000E+01</totfact>
</mgrwt>
</event>
<event>
 6   1  0.1010085E+08  0.1740010E+03  0.7818608E-02  0.1078737E+00
       11   -1    0    0    0    0  0.00000000000E+00  0.00000000000E+00  0.10499998757E+01  0.10500000000E+01  0.51100000000E-03 0.  1.
  9000002   -1    0    0    0    0  0.00000000000E+00  0.00000000000E+00 -0.50581761002E-12  0.17400000000E+03  0.17400000000E+03 0.  1.
       11    1    1    2    0    0  0.28762397320E-02  0.60485871633E-02  0.59318036554E+00  0.59321839599E+00  0.51100000000E-03 0.  1.
  9000002    1    1    2    0    0 -0.32794393028E-03  0.83487306307E-03  0.31013783558E-03  0.17400000000E+03  0.17400000000E+03 0.  1.
       11    1    1    2    0    0  0.24836423609E-02  0.11924599861E-02  0.23364315817E-01  0.23531740547E-01  0.51100000000E-03 0.  1.
      -11    1    1    2    0    0 -0.50319381626E-02 -0.80759202125E-02  0.43314505646E+00  0.43324986087E+00  0.51100000000E-03 0. -1.
<mgrwt>
<rscale>  0 0.17400100E+03</rscale>
<asrwt>0</asrwt>
<pdfrwt beam="1">  1       11 0.10000000E+01 0.17400100E+03</pdfrwt>
<pdfrwt beam="2">  1  9000002 0.10000000E+01 0.17400100E+03</pdfrwt>
<totfact> 0.10000000E+01</totfact>
</mgrwt>
</event>
<event>
 6   1  0.1010085E+08  0.1740006E+03  0.7818608E-02  0.1078737E+00
       11   -1    0    0    0    0  0.00000000000E+00  0.00000000000E+00  0.10499998757E+01  0.10500000000E+01  0.51100000000E-03 0. -1.
  9000002   -1    0    0    0    0  0.00000000000E+00  0.00000000000E+00 -0.50581761002E-12  0.17400000000E+03  0.17400000000E+03 0.  1.
       11    1    1    2    0    0  0.10316340469E-02  0.22325243920E-03  0.36777674190E+00  0.36777861155E+00  0.51100000000E-03 0.  1.
  9000002    1    1    2    0    0 -0.47034754361E-03 -0.11290755049E-03  0.99697546234E-04  0.17400000000E+03  0.17400000000E+03 0.  1.
       11    1    1    2    0    0  0.91283224931E-04 -0.55008719672E-02  0.44984787066E+00  0.44988180201E+00  0.51100000000E-03 0. -1.
      -11    1    1    2    0    0 -0.65256972819E-03  0.53905270785E-02  0.23227556556E+00  0.23233958575E+00  0.51100000000E-03 0.  1.
<mgrwt>
<rscale>  0 0.17400058E+03</rscale>
<asrwt>0</asrwt>
<pdfrwt beam="1">  1       11 0.10000000E+01 0.17400058E+03</pdfrwt>
<pdfrwt beam="2">  1  9000002 0.10000000E+01 0.17400058E+03</pdfrwt>
<totfact> 0.10000000E+01</totfact>
</mgrwt>
</event>
<event>
 6   1  0.1010085E+08  0.1740005E+03  0.7818608E-02  0.1078737E+00
       11   -1    0    0    0    0  0.00000000000E+00  0.00000000000E+00  0.10499998757E+01  0.10500000000E+01  0.51100000000E-03 0.  1.
  9000002   -1    0    0    0    0  0.00000000000E+00  0.00000000000E+00 -0.50581761002E-12  0.17400000000E+03  0.17400000000E+03 0. -1.
       11    1    1    2    0    0 -0.16902253486E-01 -0.75892452199E-02  0.43514325580E+00  0.43553782500E+00  0.51100000000E-03 0.  1.
  9000002    1    1    2    0    0 -0.12193939645E-02  0.75623025290E-03  0.79019067925E-03  0.17400000001E+03  0.17400000000E+03 0. -1.
       11    1    1    2    0    0  0.82100567994E-02  0.27538036744E-02  0.42709202830E+00  0.42718011449E+00  0.51100000000E-03 0.  1.
      -11    1    1    2    0    0  0.99115906514E-02  0.40792112926E-02  0.18697440088E+00  0.18728205280E+00  0.51100000000E-03 0. -1.
<mgrwt>
<rscale>  0 0.17400054E+03</rscale>
<asrwt>0</asrwt>
<pdfrwt beam="1">  1       11 0.10000000E+01 0.17400054E+03</pdfrwt>
<pdfrwt beam="2">  1  9000002 0.10000000E+01 0.17400054E+03</pdfrwt>
<totfact> 0.10000000E+01</totfact>
</mgrwt>
</event>
<event>
 6   1  0.1010085E+08  0.1740010E+03  0.7818608E-02  0.1078737E+00
       11   -1    0    0    0    0  0.00000000000E+00  0.00000000000E+00  0.10499998757E+01  0.10500000000E+01  0.51100000000E-03 0.  1.
  9000002   -1    0    0    0    0  0.00000000000E+00  0.00000000000E+00 -0.50581761002E-12  0.17400000000E+03  0.17400000000E+03 0.  1.
       11    1    1    2    0    0 -0.58779685031E-03  0.36399023990E-02  0.70117177246E-01  0.70215910294E-01  0.51100000000E-03 0. -1.
  9000002    1    1    2    0    0 -0.19153938655E-02  0.87046513395E-02  0.27246649989E-03  0.17400000023E+03  0.17400000000E+03 0.  1.
       11    1    1    2    0    0  0.46141304845E-02  0.64079965622E-03  0.38126422266E+00  0.38129302305E+00  0.51100000000E-03 0.  1.
      -11    1    1    2    0    0 -0.21109397686E-02 -0.12985353395E-01  0.59834600925E+00  0.59849083817E+00  0.51100000000E-03 0.  1.
<mgrwt>
<rscale>  0 0.17400102E+03</rscale>
<asrwt>0</asrwt>
<pdfrwt beam="1">  1       11 0.10000000E+01 0.17400102E+03</pdfrwt>
<pdfrwt beam="2">  1  9000002 0.10000000E+01 0.17400102E+03</pdfrwt>
<totfact> 0.10000000E+01</totfact>
</mgrwt>
</event>
<event>
 6   1  0.1010085E+08  0.1740007E+03  0.7818608E-02  0.1078737E+00
       11   -1    0    0    0    0  0.00000000000E+00  0.00000000000E+00  0.10499998757E+01  0.10500000000E+01  0.51100000000E-03 0.  1.
  9000002   -1    0    0    0    0  0.00000000000E+00  0.00000000000E+00 -0.50581761002E-12  0.17400000000E+03  0.17400000000E+03 0. -1.
       11    1    1    2    0    0 -0.25295382377E-02 -0.10600816014E-01  0.48698311807E+00  0.48710532153E+00  0.51100000000E-03 0. -1.
  9000002    1    1    2    0    0 -0.60819696935E-04 -0.11228388311E-02  0.26828002554E-03  0.17400000000E+03  0.17400000000E+03 0. -1.
       11    1    1    2    0    0  0.16725798683E-02  0.92667061573E-03  0.84177361116E-01  0.84200626403E-01  0.51100000000E-03 0.  1.
      -11    1    1    2    0    0  0.91777806631E-03  0.10796984230E-01  0.47857111645E+00  0.47869404822E+00  0.51100000000E-03 0.  1.
<mgrwt>
<rscale>  0 0.17400068E+03</rscale>
<asrwt>0</asrwt>
<pdfrwt beam="1">  1       11 0.10000000E+01 0.17400068E+03</pdfrwt>
<pdfrwt beam="2">  1  9000002 0.10000000E+01 0.17400068E+03</pdfrwt>
<totfact> 0.10000000E+01</totfact>
</mgrwt>
</event>
<event>
 6   1  0.1010085E+08  0.1740004E+03  0.7818608E-02  0.1078737E+00
       11   -1    0    0    0    0  0.00000000000E+00  0.00000000000E+00  0.10499998757E+01  0.10500000000E+01  0.51100000000E-03 0. -1.
  9000002   -1    0    0    0    0  0.00000000000E+00  0.00000000000E+00 -0.50581761002E-12  0.17400000000E+03  0.17400000000E+03 0. -1.
       11    1    1    2    0    0  0.16433438023E-03  0.72675549648E-03  0.35888919346E+00  0.35889033072E+00  0.51100000000E-03 0. -1.
  9000002    1    1    2    0    0 -0.47839892113E-04 -0.26421993813E-02  0.12920611589E-03  0.17400000002E+03  0.17400000000E+03 0. -1.
       11    1    1    2    0    0  0.18812644491E-02 -0.53746994279E-02  0.31415915179E+00  0.31421117155E+00  0.51100000000E-03 0. -1.
      -11    1    1    2    0    0 -0.19977589372E-02  0.72901433128E-02  0.37682232429E+00  0.37689847762E+00  0.51100000000E-03 0. -1.
<mgrwt>
<rscale>  0 0.17400041E+03</rscale>
<asrwt>0</asrwt>
<pdfrwt beam="1">  1       11 0.10000000E+01 0.17400041E+03</pdfrwt>
<pdfrwt beam="2">  1  9000002 0.10000000E+01 0.17400041E+03</pdfrwt>
<totfact> 0.10000000E+01</totfact>
</mgrwt>
</event>
<event>
 6   1  0.1010085E+08  0.1740014E+03  0.7818608E-02  0.1078736E+00
       11   -1    0    0    0    0  0.00000000000E+00  0.00000000000E+00  0.10499998757E+01  0.10500000000E+01  0.51100000000E-03 0. -1.
  9000002   -1    0    0    0    0  0.00000000000E+00  0.00000000000E+00 -0.50581761002E-12  0.17400000000E+03  0.17400000000E+03 0.  1.
       11    1    1    2    0    0 -0.87048572385E-02 -0.17100666725E-02  0.72243379071E-01  0.72787813574E-01  0.51100000000E-03 0.  1.
  9000002    1    1    2    0    0 -0.22404637160E-02 -0.42537323125E-02  0.90184915644E-03  0.17400000007E+03  0.17400000000E+03 0.  1.
       11    1    1    2    0    0  0.87595564438E-02  0.14735283228E-01  0.69738963007E+00  0.69760046993E+00  0.51100000000E-03 0. -1.
      -11    1    1    2    0    0  0.21857645107E-02 -0.87714842425E-02  0.27946501736E+00  0.27961164774E+00  0.51100000000E-03 0. -1.
<mgrwt>
<rscale>  0 0.17400139E+03</rscale>
<asrwt>0</asrwt>
<pdfrwt beam="1">  1       11 0.10000000E+01 0.17400139E+03</pdfrwt>
<pdfrwt beam="2">  1  9000002 0.10000000E+01 0.17400139E+03</pdfrwt>
<totfact> 0.10000000E+01</totfact>
</mgrwt>
</event>
<event>
 6   1  0.1010085E+08  0.1740008E+03  0.7818608E-02  0.1078737E+00
       11   -1    0    0    0    0  0.00000000000E+00  0.00000000000E+00  0.10499998757E+01  0.10500000000E+01  0.51100000000E-03 0.  1.
  9000002   -1    0    0    0    0  0.00000000000E+00  0.00000000000E+00 -0.50581761002E-12  0.17400000000E+03  0.17400000000E+03 0.  1.
       11    1    1    2    0    0  0.14009820088E-03 -0.63619049329E-04  0.53868916288E+00  0.53868942722E+00  0.51100000000E-03 0. -1.
  9000002    1    1    2    0    0 -0.36109143190E-02 -0.98331442543E-02  0.34220419682E-02  0.17400000035E+03  0.17400000000E+03 0.  1.
       11    1    1    2    0    0 -0.17142158409E-01  0.58153985032E-02  0.43689826256E+00  0.43727339892E+00  0.51100000000E-03 0.  1.
      -11    1    1    2    0    0  0.20612974527E-01  0.40813648004E-02  0.70990408246E-01  0.74036824892E-01  0.51100000000E-03 0. -1.
<mgrwt>
<rscale>  0 0.17400083E+03</rscale>
<asrwt>0</asrwt>
<pdfrwt beam="1">  1       11 0.10000000E+01 0.17400083E+03</pdfrwt>
<pdfrwt beam="2">  1  9000002 0.10000000E+01 0.17400083E+03</pdfrwt>
<totfact> 0.10000000E+01</totfact>
</mgrwt>
</event>
<event>
 6   1  0.1010085E+08  0.1740004E+03  0.7818608E-02  0.1078737E+00
       11   -1    0    0    0    0  0.00000000000E+00  0.00000000000E+00  0.10499998757E+01  0.10500000000E+01  0.51100000000E-03 0. -1.
  9000002   -1    0    0    0    0  0.00000000000E+00  0.00000000000E+00 -0.50581761002E-12  0.17400000000E+03  0.17400000000E+03 0.  1.
       11    1    1    2    0    0  0.23300252131E-03 -0.35952217072E-02  0.39645315468E+00  0.39646985369E+00  0.51100000000E-03 0. -1.
  9000002    1    1    2    0    0  0.48857107395E-02 -0.86574465344E-03  0.25565113294E-03  0.17400000007E+03  0.17400000000E+03 0.  1.
       11    1    1    2    0    0  0.77337360484E-03 -0.52085911152E-02  0.32571028420E+00  0.32575324692E+00  0.51100000000E-03 0.  1.
      -11    1    1    2    0    0 -0.58920868656E-02  0.96695574758E-02  0.32758078564E+00  0.32777682845E+00  0.51100000000E-03 0. -1.
<mgrwt>
<rscale>  0 0.17400045E+03</rscale>
<asrwt>0</asrwt>
<pdfrwt beam="1">  1       11 0.10000000E+01 0.17400045E+03</pdfrwt>
<pdfrwt beam="2">  1  9000002 0.10000000E+01 0.17400045E+03</pdfrwt>
<totfact> 0.10000000E+01</totfact>
</mgrwt>
</event>
<event>
 6   1  0.1010085E+08  0.1740007E+03  0.7818608E-02  0.1078737E+00
       11   -1    0    0    0    0  0.00000000000E+00  0.00000000000E+00  0.10499998757E+01  0.10500000000E+01  0.51100000000E-03 0. -1.
  9000002   -1    0    0    0    0  0.00000000000E+00  0.00000000000E+00 -0.50581761002E-12  0.17400000000E+03  0.17400000000E+03 0.  1.
       11    1    1    2    0    0  0.24339488720E-02  0.14986612366E-02  0.13674427579E+00  0.13677510071E+00  0.51100000000E-03 0.  1.
  9000002    1    1    2    0    0  0.25011685306E-02 -0.66086597464E-03  0.11271945577E-03  0.17400000002E+03  0.17400000000E+03 0.  1.
       11    1    1    2    0    0 -0.17233450279E-02 -0.59041480542E-02  0.50159865091E+00  0.50163661808E+00  0.51100000000E-03 0. -1.
      -11    1    1    2    0    0 -0.32117723747E-02  0.50663527923E-02  0.41154422950E+00  0.41158826194E+00  0.51100000000E-03 0. -1.
<mgrwt>
<rscale>  0 0.17400072E+03</rscale>
<asrwt>0</asrwt>
<pdfrwt beam="1">  1       11 0.10000000E+01 0.17400072E+03</pdfrwt>
<pdfrwt beam="2">  1  9000002 0.10000000E+01 0.17400072E+03</pdfrwt>
<totfact> 0.10000000E+01</totfact>
</mgrwt>
</event>
<event>
 6   1  0.1010085E+08  0.1740006E+03  0.7818608E-02  0.1078737E+00
       11   -1    0    0    0    0  0.00000000000E+00  0.00000000000E+00  0.10499998757E+01  0.10500000000E+01  0.51100000000E-03 0. -1.
  9000002   -1    0    0    0    0  0.00000000000E+00  0.00000000000E+00 -0.50581761002E-12  0.17400000000E+03  0.17400000000E+03 0.  1.
       11    1    1    2    0    0 -0.77465098846E-03 -0.17873117375E-02  0.44861810314E+00  0.44862262332E+00  0.51100000000E-03 0. -1.
  9000002    1    1    2    0    0 -0.20347020963E-02  0.29467574298E-03  0.11248501566E-03  0.17400000001E+03  0.17400000000E+03 0.  1.
       11    1    1    2    0    0  0.29021454878E-02 -0.40637493498E-02  0.39743148625E+00  0.39746318558E+00  0.51100000000E-03 0. -1.
      -11    1    1    2    0    0 -0.92792403104E-04  0.55563853443E-02  0.20383780125E+00  0.20391417892E+00  0.51100000000E-03 0.  1.
<mgrwt>
<rscale>  0 0.17400058E+03</rscale>
<asrwt>0</asrwt>
<pdfrwt beam="1">  1       11 0.10000000E+01 0.17400058E+03</pdfrwt>
<pdfrwt beam="2">  1  9000002 0.10000000E+01 0.17400058E+03</pdfrwt>
<totfact> 0.10000000E+01</totfact>
</mgrwt>
</event>
<event>
 6   1  0.1010085E+08  0.1740010E+03  0.7818608E-02  0.1078737E+00
       11   -1    0    0    0    0  0.00000000000E+00  0.00000000000E+00  0.10499998757E+01  0.10500000000E+01  0.51100000000E-03 0. -1.
  9000002   -1    0    0    0    0  0.00000000000E+00  0.00000000000E+00 -0.50581761002E-12  0.17400000000E+03  0.17400000000E+03 0. -1.
       11    1    1    2    0    0 -0.11278574896E-03  0.53935351030E-03  0.32794279954E+00  0.32794366057E+00  0.51100000000E-03 0. -1.
  9000002    1    1    2    0    0 -0.93561764429E-03 -0.26021855908E-03  0.22650850427E-03  0.17400000000E+03  0.17400000000E+03 0. -1.
       11    1    1    2    0    0 -0.36847793116E-02  0.57920689271E-02  0.13527949265E+00  0.13545452341E+00  0.51100000000E-03 0.  1.
      -11    1    1    2    0    0  0.47331827048E-02 -0.60712038784E-02  0.58655107497E+00  0.58660181316E+00  0.51100000000E-03 0. -1.
<mgrwt>
<rscale>  0 0.17400098E+03</rscale>
<asrwt>0</asrwt>
<pdfrwt beam="1">  1       11 0.10000000E+01 0.17400098E+03</pdfrwt>
<pdfrwt beam="2">  1  9000002 0.10000000E+01 0.17400098E+03</pdfrwt>
<totfact> 0.10000000E+01</totfact>
</mgrwt>
</event>
<event>
 6   1  0.1010085E+08  0.1740006E+03  0.7818608E-02  0.1078737E+00
       11   -1    0    0    0    0  0.00000000000E+00  0.00000000000E+00  0.10499998757E+01  0.10500000000E+01  0.51100000000E-03 0. -1.
  9000002   -1    0    0    0    0  0.00000000000E+00  0.00000000000E+00 -0.50581761002E-12  0.17400000000E+03  0.17400000000E+03 0. -1.
       11    1    1    2    0    0  0.00000000000E+00  0.00000000000E+00  0.45957710130E+00  0.45957736612E+00  0.51100000000E-03 0.  1.
  9000002    1    1    2    0    0  0.27018326660E-04 -0.37172806552E-03  0.13440227326E-03  0.17400000000E+03  0.17400000000E+03 0. -1.
       11    1    1    2    0    0  0.38045219969E-02  0.50499610861E-02  0.25193947533E+00  0.25201931839E+00  0.51100000000E-03 0.  1.
      -11    1    1    2    0    0 -0.38315403235E-02 -0.46782330205E-02  0.33834889676E+00  0.33840331503E+00  0.51100000000E-03 0. -1.
<mgrwt>
<rscale>  0 0.17400060E+03</rscale>
<asrwt>0</asrwt>
<pdfrwt beam="1">  1       11 0.10000000E+01 0.17400060E+03</pdfrwt>
<pdfrwt beam="2">  1  9000002 0.10000000E+01 0.17400060E+03</pdfrwt>
<totfact> 0.10000000E+01</totfact>
</mgrwt>
</event>
<event>
 6   1  0.1010085E+08  0.1740007E+03  0.7818608E-02  0.1078737E+00
       11   -1    0    0    0    0  0.00000000000E+00  0.00000000000E+00  0.10499998757E+01  0.10500000000E+01  0.51100000000E-03 0. -1.
  9000002   -1    0    0    0    0  0.00000000000E+00  0.00000000000E+00 -0.50581761002E-12  0.17400000000E+03  0.17400000000E+03 0. -1.
       11    1    1    2    0    0 -0.27988324524E-02 -0.13113122298E-01  0.28048252261E+00  0.28080330135E+00  0.51100000000E-03 0. -1.
  9000002    1    1    2    0    0 -0.66408064102E-02 -0.24898930399E-02  0.89626643119E-03  0.17400000015E+03  0.17400000000E+03 0. -1.
       11    1    1    2    0    0  0.00000000000E+00  0.00000000000E+00  0.47959677116E+00  0.47959704056E+00  0.51100000000E-03 0.  1.
      -11    1    1    2    0    0  0.94396388626E-02  0.15603015338E-01  0.28902431546E+00  0.28959951125E+00  0.51100000000E-03 0.  1.
<mgrwt>
<rscale>  0 0.17400066E+03</rscale>
<asrwt>0</asrwt>
<pdfrwt beam="1">  1       11 0.10000000E+01 0.17400066E+03</pdfrwt>
<pdfrwt beam="2">  1  9000002 0.10000000E+01 0.17400066E+03</pdfrwt>
<totfact> 0.10000000E+01</totfact>
</mgrwt>
</event>
<event>
 6   1  0.1010085E+08  0.1740010E+03  0.7818608E-02  0.1078737E+00
       11   -1    0    0    0    0  0.00000000000E+00  0.00000000000E+00  0.10499998757E+01  0.10500000000E+01  0.51100000000E-03 0. -1.
  9000002   -1    0    0    0    0  0.00000000000E+00  0.00000000000E+00 -0.50581761002E-12  0.17400000000E+03  0.17400000000E+03 0. -1.
       11    1    1    2    0    0  0.41529058187E-04 -0.12086610230E-02  0.28067598622E-01  0.28098288203E-01  0.51100000000E-03 0.  1.
  9000002    1    1    2    0    0 -0.59363650508E-03  0.20226242518E-03  0.12945549256E-03  0.17400000000E+03  0.17400000000E+03 0. -1.
       11    1    1    2    0    0 -0.10136760488E-02  0.74116752633E-02  0.60415307558E+00  0.60419960305E+00  0.51100000000E-03 0. -1.
      -11    1    1    2    0    0  0.15657834957E-02 -0.64052766655E-02  0.41764974596E+00  0.41770210757E+00  0.51100000000E-03 0. -1.
<mgrwt>
<rscale>  0 0.17400104E+03</rscale>
<asrwt>0</asrwt>
<pdfrwt beam="1">  1       11 0.10000000E+01 0.17400104E+03</pdfrwt>
<pdfrwt beam="2">  1  9000002 0.10000000E+01 0.17400104E+03</pdfrwt>
<totfact> 0.10000000E+01</totfact>
</mgrwt>
</event>
<event>
 6   1  0.1010085E+08  0.1740013E+03  0.7818608E-02  0.1078737E+00
       11   -1    0    0    0    0  0.00000000000E+00  0.00000000000E+00  0.10499998757E+01  0.10500000000E+01  0.51100000000E-03 0. -1.
  9000002   -1    0    0    0    0  0.00000000000E+00  0.00000000000E+00 -0.50581761002E-12  0.17400000000E+03  0.17400000000E+03 0.  1.
       11    1    1    2    0    0  0.27230760679E-02 -0.79330467540E-03  0.50738562047E-01  0.50820343113E-01  0.51100000000E-03 0.  1.
  9000002    1    1    2    0    0 -0.15582359208E-02  0.32494132027E-03  0.34885618000E-03  0.17400000001E+03  0.17400000000E+03 0.  1.
       11    1    1    2    0    0 -0.31137904880E-02  0.10752334645E-01  0.68657094197E+00  0.68666238274E+00  0.51100000000E-03 0. -1.
      -11    1    1    2    0    0  0.19489503409E-02 -0.10283971290E-01  0.31234151546E+00  0.31251726652E+00  0.51100000000E-03 0. -1.
<mgrwt>
<rscale>  0 0.17400134E+03</rscale>
<asrwt>0</asrwt>
<pdfrwt beam="1">  1       11 0.10000000E+01 0.17400134E+03</pdfrwt>
<pdfrwt beam="2">  1  9000002 0.10000000E+01 0.17400134E+03</pdfrwt>
<totfact> 0.10000000E+01</totfact>
</mgrwt>
</event>
<event>
 6   1  0.1010085E+08  0.1740006E+03  0.7818608E-02  0.1078737E+00
       11   -1    0    0    0    0  0.00000000000E+00  0.00000000000E+00  0.10499998757E+01  0.10500000000E+01  0.51100000000E-03 0. -1.
  9000002   -1    0    0    0    0  0.00000000000E+00  0.00000000000E+00 -0.50581761002E-12  0.17400000000E+03  0.17400000000E+03 0. -1.
       11    1    1    2    0    0  0.36886785541E-03  0.54825377492E-02  0.46999497596E+00  0.47002737456E+00  0.51100000000E-03 0.  1.
  9000002    1    1    2    0    0  0.35928216594E-03  0.58872973384E-03  0.85471380953E-04  0.17400000000E+03  0.17400000000E+03 0. -1.
       11    1    1    2    0    0 -0.77064992942E-03 -0.30236386142E-03  0.25318337189E+00  0.25318524098E+00  0.51100000000E-03 0. -1.
      -11    1    1    2    0    0  0.42499908077E-04 -0.57689036217E-02  0.32673605642E+00  0.32678738308E+00  0.51100000000E-03 0. -1.
<mgrwt>
<rscale>  0 0.17400063E+03</rscale>
<asrwt>0</asrwt>
<pdfrwt beam="1">  1       11 0.10000000E+01 0.17400063E+03</pdfrwt>
<pdfrwt beam="2">  1  9000002 0.10000000E+01 0.17400063E+03</pdfrwt>
<totfact> 0.10000000E+01</totfact>
</mgrwt>
</event>
<event>
 6   1  0.1634967E+08  0.1740023E+03  0.7818608E-02  0.1078736E+00
       11   -1    0    0    0    0  0.00000000000E+00  0.00000000000E+00  0.10499998757E+01  0.10500000000E+01  0.51100000000E-03 0.  1.
  9000002   -1    0    0    0    0  0.00000000000E+00  0.00000000000E+00 -0.50581761002E-12  0.17400000000E+03  0.17400000000E+03 0. -1.
       11    1    1    2    0    0  0.45668375308E-02  0.14415798566E-01  0.89738062348E+00  0.89750817031E+00  0.51100000000E-03 0.  1.
  9000002    1    1    2    0    0  0.21104501656E-02  0.18217456222E-02  0.42805787323E-02  0.17400000007E+03  0.17400000000E+03 0. -1.
       11    1    1    2    0    0 -0.33717308296E-02  0.73188068239E-03  0.36077347068E-03  0.35064933902E-02  0.51100000000E-03 0. -1.
      -11    1    1    2    0    0 -0.33055568667E-02 -0.16969424871E-01  0.14797789997E+00  0.14898526131E+00  0.51100000000E-03 0.  1.
<mgrwt>
<rscale>  0 0.17400229E+03</rscale>
<asrwt>0</asrwt>
<pdfrwt beam="1">  1       11 0.10000000E+01 0.17400229E+03</pdfrwt>
<pdfrwt beam="2">  1  9000002 0.10000000E+01 0.17400229E+03</pdfrwt>
<totfact> 0.10000000E+01</totfact>
</mgrwt>
</event>
<event>
 6   1  0.1010085E+08  0.1740008E+03  0.7818608E-02  0.1078737E+00
       11   -1    0    0    0    0  0.00000000000E+00  0.00000000000E+00  0.10499998757E+01  0.10500000000E+01  0.51100000000E-03 0. -1.
  9000002   -1    0    0    0    0  0.00000000000E+00  0.00000000000E+00 -0.50581761002E-12  0.17400000000E+03  0.17400000000E+03 0.  1.
       11    1    1    2    0    0 -0.39352065973E-02  0.10601683615E-02  0.51454563879E+00  0.51456203253E+00  0.51100000000E-03 0. -1.
  9000002    1    1    2    0    0  0.46871824502E-03  0.10493105893E-01  0.86354952514E-03  0.17400000032E+03  0.17400000000E+03 0.  1.
       11    1    1    2    0    0  0.40447797026E-02  0.72469171444E-02  0.74540632334E-01  0.75002966880E-01  0.51100000000E-03 0.  1.
      -11    1    1    2    0    0 -0.57829135039E-03 -0.18800191399E-01  0.46005005501E+00  0.46043468142E+00  0.51100000000E-03 0. -1.
<mgrwt>
<rscale>  0 0.17400076E+03</rscale>
<asrwt>0</asrwt>
<pdfrwt beam="1">  1       11 0.10000000E+01 0.17400076E+03</pdfrwt>
<pdfrwt beam="2">  1  9000002 0.10000000E+01 0.17400076E+03</pdfrwt>
<totfact> 0.10000000E+01</totfact>
</mgrwt>
</event>
<event>
 6   1  0.1010085E+08  0.1740018E+03  0.7818608E-02  0.1078736E+00
       11   -1    0    0    0    0  0.00000000000E+00  0.00000000000E+00  0.10499998757E+01  0.10500000000E+01  0.51100000000E-03 0.  1.
  9000002   -1    0    0    0    0  0.00000000000E+00  0.00000000000E+00 -0.50581761002E-12  0.17400000000E+03  0.17400000000E+03 0.  1.
       11    1    1    2    0    0  0.30629405404E-02  0.75795075291E-02  0.14705447824E-01  0.16832761380E-01  0.51100000000E-03 0. -1.
  9000002    1    1    2    0    0  0.34941383915E-02 -0.92275821406E-03  0.35059997317E-02  0.17400000007E+03  0.17400000000E+03 0.  1.
       11    1    1    2    0    0 -0.25175454333E-01 -0.14645144742E-01  0.78784971100E+00  0.78838804659E+00  0.51100000000E-03 0.  1.
      -11    1    1    2    0    0  0.18618375401E-01  0.79883954270E-02  0.24393871710E+00  0.24477911917E+00  0.51100000000E-03 0.  1.
<mgrwt>
<rscale>  0 0.17400177E+03</rscale>
<asrwt>0</asrwt>
<pdfrwt beam="1">  1       11 0.10000000E+01 0.17400177E+03</pdfrwt>
<pdfrwt beam="2">  1  9000002 0.10000000E+01 0.17400177E+03</pdfrwt>
<totfact> 0.10000000E+01</totfact>
</mgrwt>
</event>
<event>
 6   1  0.1010085E+08  0.1740007E+03  0.7818608E-02  0.1078737E+00
       11   -1    0    0    0    0  0.00000000000E+00  0.00000000000E+00  0.10499998757E+01  0.10500000000E+01  0.51100000000E-03 0.  1.
  9000002   -1    0    0    0    0  0.00000000000E+00  0.00000000000E+00 -0.50581761002E-12  0.17400000000E+03  0.17400000000E+03 0. -1.
       11    1    1    2    0    0  0.26585453440E-03 -0.49635791335E-02  0.48453552646E+00  0.48456129161E+00  0.51100000000E-03 0.  1.
  9000002    1    1    2    0    0 -0.14739684951E-03  0.10677049134E-03  0.62896894861E-04  0.17400000000E+03  0.17400000000E+03 0. -1.
       11    1    1    2    0    0 -0.65726771935E-03  0.18623840813E-04  0.23032747016E+00  0.23032897555E+00  0.51100000000E-03 0.  1.
      -11    1    1    2    0    0  0.53881003445E-03  0.48381848014E-02  0.33507398214E+00  0.33510973274E+00  0.51100000000E-03 0. -1.
<mgrwt>
<rscale>  0 0.17400067E+03</rscale>
<asrwt>0</asrwt>
<pdfrwt beam="1">  1       11 0.10000000E+01 0.17400067E+03</pdfrwt>
<pdfrwt beam="2">  1  9000002 0.10000000E+01 0.17400067E+03</pdfrwt>
<totfact> 0.10000000E+01</totfact>
</mgrwt>
</event>
<event>
 6   1  0.1010085E+08  0.1740011E+03  0.7818608E-02  0.1078737E+00
       11   -1    0    0    0    0  0.00000000000E+00  0.00000000000E+00  0.10499998757E+01  0.10500000000E+01  0.51100000000E-03 0.  1.
  9000002   -1    0    0    0    0  0.00000000000E+00  0.00000000000E+00 -0.50581761002E-12  0.17400000000E+03  0.17400000000E+03 0.  1.
       11    1    1    2    0    0 -0.31375472799E-02 -0.42342128883E-02  0.11106617102E+00  0.11119230290E+00  0.51100000000E-03 0. -1.
  9000002    1    1    2    0    0  0.78047606417E-02  0.86478166879E-02  0.72230630706E-03  0.17400000039E+03  0.17400000000E+03 0.  1.
       11    1    1    2    0    0  0.60161399512E-02 -0.15660354011E-01  0.60764902629E+00  0.60788077852E+00  0.51100000000E-03 0.  1.
      -11    1    1    2    0    0 -0.10683353313E-01  0.11246750212E-01  0.33056237205E+00  0.33092652713E+00  0.51100000000E-03 0.  1.
<mgrwt>
<rscale>  0 0.17400105E+03</rscale>
<asrwt>0</asrwt>
<pdfrwt beam="1">  1       11 0.10000000E+01 0.17400105E+03</pdfrwt>
<pdfrwt beam="2">  1  9000002 0.10000000E+01 0.17400105E+03</pdfrwt>
<totfact> 0.10000000E+01</totfact>
</mgrwt>
</event>
<event>
 6   1  0.1010085E+08  0.1740019E+03  0.7818608E-02  0.1078736E+00
       11   -1    0    0    0    0  0.00000000000E+00  0.00000000000E+00  0.10499998757E+01  0.10500000000E+01  0.51100000000E-03 0. -1.
  9000002   -1    0    0    0    0  0.00000000000E+00  0.00000000000E+00 -0.50581761002E-12  0.17400000000E+03  0.17400000000E+03 0. -1.
       11    1    1    2    0    0 -0.66621445195E-02  0.95628888646E-02  0.81424292002E+00  0.81432648670E+00  0.51100000000E-03 0. -1.
  9000002    1    1    2    0    0  0.95771484665E-03  0.59889644381E-02  0.75772307008E-03  0.17400000011E+03  0.17400000000E+03 0. -1.
       11    1    1    2    0    0  0.30138862134E-02 -0.25220130111E-02  0.82084354722E-01  0.82179963914E-01  0.51100000000E-03 0.  1.
      -11    1    1    2    0    0  0.26905434594E-02 -0.13029840292E-01  0.15291487784E+00  0.15349344203E+00  0.51100000000E-03 0. -1.
<mgrwt>
<rscale>  0 0.17400189E+03</rscale>
<asrwt>0</asrwt>
<pdfrwt beam="1">  1       11 0.10000000E+01 0.17400189E+03</pdfrwt>
<pdfrwt beam="2">  1  9000002 0.10000000E+01 0.17400189E+03</pdfrwt>
<totfact> 0.10000000E+01</totfact>
</mgrwt>
</event>
<event>
 6   1  0.1010085E+08  0.1740005E+03  0.7818608E-02  0.1078737E+00
       11   -1    0    0    0    0  0.00000000000E+00  0.00000000000E+00  0.10499998757E+01  0.10500000000E+01  0.51100000000E-03 0.  1.
  9000002   -1    0    0    0    0  0.00000000000E+00  0.00000000000E+00 -0.50581761002E-12  0.17400000000E+03  0.17400000000E+03 0.  1.
       11    1    1    2    0    0  0.10528497719E-01  0.72144326764E-02  0.39883973771E+00  0.39904422663E+00  0.51100000000E-03 0.  1.
  9000002    1    1    2    0    0  0.13695903131E-02 -0.20868145269E-02  0.41797379330E-03  0.17400000002E+03  0.17400000000E+03 0.  1.
       11    1    1    2    0    0  0.12280326209E-03  0.37763122858E-03  0.23933548020E+00  0.23933635514E+00  0.51100000000E-03 0. -1.
      -11    1    1    2    0    0 -0.12020891294E-01 -0.55052493781E-02  0.41140668395E+00  0.41161939983E+00  0.51100000000E-03 0.  1.
<mgrwt>
<rscale>  0 0.17400048E+03</rscale>
<asrwt>0</asrwt>
<pdfrwt beam="1">  1       11 0.10000000E+01 0.17400048E+03</pdfrwt>
<pdfrwt beam="2">  1  9000002 0.10000000E+01 0.17400048E+03</pdfrwt>
<totfact> 0.10000000E+01</totfact>
</mgrwt>
</event>
<event>
 6   1  0.1010085E+08  0.1740008E+03  0.7818608E-02  0.1078737E+00
       11   -1    0    0    0    0  0.00000000000E+00  0.00000000000E+00  0.10499998757E+01  0.10500000000E+01  0.51100000000E-03 0. -1.
  9000002   -1    0    0    0    0  0.00000000000E+00  0.00000000000E+00 -0.50581761002E-12  0.17400000000E+03  0.17400000000E+03 0.  1.
       11    1    1    2    0    0 -0.45423379409E-02  0.38247763863E-02  0.16421305331E+00  0.16432117863E+00  0.51100000000E-03 0.  1.
  9000002    1    1    2    0    0  0.16846196010E-02 -0.24310355025E-04  0.13754404531E-03  0.17400000001E+03  0.17400000000E+03 0.  1.
       11    1    1    2    0    0  0.41132226718E-03 -0.79084283164E-04  0.54076469837E+00  0.54076510202E+00  0.51100000000E-03 0. -1.
      -11    1    1    2    0    0  0.24463960727E-02 -0.37213817481E-02  0.34488457993E+00  0.34491371114E+00  0.51100000000E-03 0. -1.
<mgrwt>
<rscale>  0 0.17400084E+03</rscale>
<asrwt>0</asrwt>
<pdfrwt beam="1">  1       11 0.10000000E+01 0.17400084E+03</pdfrwt>
<pdfrwt beam="2">  1  9000002 0.10000000E+01 0.17400084E+03</pdfrwt>
<totfact> 0.10000000E+01</totfact>
</mgrwt>
</event>
<event>
 6   1  0.1010085E+08  0.1740008E+03  0.7818608E-02  0.1078737E+00
       11   -1    0    0    0    0  0.00000000000E+00  0.00000000000E+00  0.10499998757E+01  0.10500000000E+01  0.51100000000E-03 0.  1.
  9000002   -1    0    0    0    0  0.00000000000E+00  0.00000000000E+00 -0.50581761002E-12  0.17400000000E+03  0.17400000000E+03 0.  1.
       11    1    1    2    0    0  0.17403648521E-02  0.47353735962E-02  0.38416217178E+00  0.38419563763E+00  0.51100000000E-03 0.  1.
  9000002    1    1    2    0    0 -0.46265317729E-04 -0.73563435323E-03  0.10471754781E-03  0.17400000000E+03  0.17400000000E+03 0.  1.
       11    1    1    2    0    0  0.88164733205E-04  0.78118947383E-04  0.52467839292E+00  0.52467865498E+00  0.51100000000E-03 0. -1.
      -11    1    1    2    0    0 -0.17822642676E-02 -0.40778581904E-02  0.14105459341E+00  0.14112570579E+00  0.51100000000E-03 0. -1.
<mgrwt>
<rscale>  0 0.17400079E+03</rscale>
<asrwt>0</asrwt>
<pdfrwt beam="1">  1       11 0.10000000E+01 0.17400079E+03</pdfrwt>
<pdfrwt beam="2">  1  9000002 0.10000000E+01 0.17400079E+03</pdfrwt>
<totfact> 0.10000000E+01</totfact>
</mgrwt>
</event>
<event>
 6   1  0.1010085E+08  0.1740007E+03  0.7818608E-02  0.1078737E+00
       11   -1    0    0    0    0  0.00000000000E+00  0.00000000000E+00  0.10499998757E+01  0.10500000000E+01  0.51100000000E-03 0. -1.
  9000002   -1    0    0    0    0  0.00000000000E+00  0.00000000000E+00 -0.50581761002E-12  0.17400000000E+03  0.17400000000E+03 0. -1.
       11    1    1    2    0    0 -0.16622149273E-02 -0.23941286806E-03  0.48754533958E+00  0.48754849968E+00  0.51100000000E-03 0. -1.
  9000002    1    1    2    0    0  0.28342146613E-02  0.86849416508E-03  0.33990799410E-03  0.17400000003E+03  0.17400000000E+03 0. -1.
       11    1    1    2    0    0 -0.13008067262E-02  0.86245004895E-02  0.38068979535E+00  0.38079004124E+00  0.51100000000E-03 0. -1.
      -11    1    1    2    0    0  0.12880699225E-03 -0.92535817865E-02  0.18142483274E+00  0.18166143350E+00  0.51100000000E-03 0.  1.
<mgrwt>
<rscale>  0 0.17400068E+03</rscale>
<asrwt>0</asrwt>
<pdfrwt beam="1">  1       11 0.10000000E+01 0.17400068E+03</pdfrwt>
<pdfrwt beam="2">  1  9000002 0.10000000E+01 0.17400068E+03</pdfrwt>
<totfact> 0.10000000E+01</totfact>
</mgrwt>
</event>
<event>
 6   1  0.1010085E+08  0.1740008E+03  0.7818608E-02  0.1078737E+00
       11   -1    0    0    0    0  0.00000000000E+00  0.00000000000E+00  0.10499998757E+01  0.10500000000E+01  0.51100000000E-03 0.  1.
  9000002   -1    0    0    0    0  0.00000000000E+00  0.00000000000E+00 -0.50581761002E-12  0.17400000000E+03  0.17400000000E+03 0. -1.
       11    1    1    2    0    0 -0.22116694976E-02  0.12712593457E-02  0.52047493452E+00  0.52048143691E+00  0.51100000000E-03 0.  1.
  9000002    1    1    2    0    0  0.27712135887E-01  0.39678543111E-02  0.14865484190E-02  0.17400000226E+03  0.17400000000E+03 0. -1.
       11    1    1    2    0    0 -0.25890885473E-01 -0.14861676163E-01  0.40818457344E+00  0.40927510856E+00  0.51100000000E-03 0.  1.
      -11    1    1    2    0    0  0.39041908327E-03  0.96225625059E-02  0.11985381928E+00  0.12024119615E+00  0.51100000000E-03 0. -1.
<mgrwt>
<rscale>  0 0.17400077E+03</rscale>
<asrwt>0</asrwt>
<pdfrwt beam="1">  1       11 0.10000000E+01 0.17400077E+03</pdfrwt>
<pdfrwt beam="2">  1  9000002 0.10000000E+01 0.17400077E+03</pdfrwt>
<totfact> 0.10000000E+01</totfact>
</mgrwt>
</event>
<event>
 6   1  0.1010085E+08  0.1740010E+03  0.7818608E-02  0.1078737E+00
       11   -1    0    0    0    0  0.00000000000E+00  0.00000000000E+00  0.10499998757E+01  0.10500000000E+01  0.51100000000E-03 0. -1.
  9000002   -1    0    0    0    0  0.00000000000E+00  0.00000000000E+00 -0.50581761002E-12  0.17400000000E+03  0.17400000000E+03 0.  1.
       11    1    1    2    0    0 -0.47760461850E-03 -0.12274910463E-04  0.72455573197E-01  0.72458950202E-01  0.51100000000E-03 0.  1.
  9000002    1    1    2    0    0 -0.11034986415E-02  0.18316929999E-03  0.42357166740E-03  0.17400000000E+03  0.17400000000E+03 0.  1.
       11    1    1    2    0    0  0.90619768358E-02  0.11176731881E-01  0.39727272953E+00  0.39753354765E+00  0.51100000000E-03 0. -1.
      -11    1    1    2    0    0 -0.74808735758E-02 -0.11347626270E-01  0.57984800126E+00  0.58000749804E+00  0.51100000000E-03 0. -1.
<mgrwt>
<rscale>  0 0.17400096E+03</rscale>
<asrwt>0</asrwt>
<pdfrwt beam="1">  1       11 0.10000000E+01 0.17400096E+03</pdfrwt>
<pdfrwt beam="2">  1  9000002 0.10000000E+01 0.17400096E+03</pdfrwt>
<totfact> 0.10000000E+01</totfact>
</mgrwt>
</event>
<event>
 6   1  0.1010085E+08  0.1740007E+03  0.7818608E-02  0.1078737E+00
       11   -1    0    0    0    0  0.00000000000E+00  0.00000000000E+00  0.10499998757E+01  0.10500000000E+01  0.51100000000E-03 0. -1.
  9000002   -1    0    0    0    0  0.00000000000E+00  0.00000000000E+00 -0.50581761002E-12  0.17400000000E+03  0.17400000000E+03 0.  1.
       11    1    1    2    0    0  0.31549645177E-03 -0.81569877483E-03  0.45534330672E+00  0.45534443336E+00  0.51100000000E-03 0. -1.
  9000002    1    1    2    0    0  0.89156552348E-02 -0.14759995252E-01  0.66998147436E-03  0.17400000086E+03  0.17400000000E+03 0.  1.
       11    1    1    2    0    0  0.18067948917E-02  0.92884392783E-02  0.88060195891E-01  0.88568610869E-01  0.51100000000E-03 0.  1.
      -11    1    1    2    0    0 -0.11037946578E-01  0.62872547487E-02  0.50592639157E+00  0.50608610003E+00  0.51100000000E-03 0. -1.
<mgrwt>
<rscale>  0 0.17400073E+03</rscale>
<asrwt>0</asrwt>
<pdfrwt beam="1">  1       11 0.10000000E+01 0.17400073E+03</pdfrwt>
<pdfrwt beam="2">  1  9000002 0.10000000E+01 0.17400073E+03</pdfrwt>
<totfact> 0.10000000E+01</totfact>
</mgrwt>
</event>
<event>
 6   1  0.1010085E+08  0.1740008E+03  0.7818608E-02  0.1078737E+00
       11   -1    0    0    0    0  0.00000000000E+00  0.00000000000E+00  0.10499998757E+01  0.10500000000E+01  0.51100000000E-03 0.  1.
  9000002   -1    0    0    0    0  0.00000000000E+00  0.00000000000E+00 -0.50581761002E-12  0.17400000000E+03  0.17400000000E+03 0.  1.
       11    1    1    2    0    0 -0.21741753068E-02 -0.11879349664E-01  0.51355350921E+00  0.51369574062E+00  0.51100000000E-03 0.  1.
  9000002    1    1    2    0    0  0.67163698019E-02  0.23500700601E-01  0.22278013273E-02  0.17400000173E+03  0.17400000000E+03 0.  1.
       11    1    1    2    0    0 -0.47767559330E-02  0.10105615854E-01  0.41295923264E+00  0.41311079604E+00  0.51100000000E-03 0. -1.
      -11    1    1    2    0    0  0.23456143786E-03 -0.21726966791E-01  0.12125933248E+00  0.12319173243E+00  0.51100000000E-03 0.  1.
<mgrwt>
<rscale>  0 0.17400075E+03</rscale>
<asrwt>0</asrwt>
<pdfrwt beam="1">  1       11 0.10000000E+01 0.17400075E+03</pdfrwt>
<pdfrwt beam="2">  1  9000002 0.10000000E+01 0.17400075E+03</pdfrwt>
<totfact> 0.10000000E+01</totfact>
</mgrwt>
</event>
<event>
 6   1  0.1010085E+08  0.1740012E+03  0.7818608E-02  0.1078737E+00
       11   -1    0    0    0    0  0.00000000000E+00  0.00000000000E+00  0.10499998757E+01  0.10500000000E+01  0.51100000000E-03 0.  1.
  9000002   -1    0    0    0    0  0.00000000000E+00  0.00000000000E+00 -0.50581761002E-12  0.17400000000E+03  0.17400000000E+03 0.  1.
       11    1    1    2    0    0 -0.13314086927E-02 -0.76679591202E-02  0.64606441365E+00  0.64611149034E+00  0.51100000000E-03 0.  1.
  9000002    1    1    2    0    0  0.30262443676E-01  0.34994324018E-01  0.36191957773E-02  0.17400000619E+03  0.17400000000E+03 0.  1.
       11    1    1    2    0    0  0.55069311050E-02 -0.36400779110E-02  0.16235828674E-01  0.17533958729E-01  0.51100000000E-03 0. -1.
      -11    1    1    2    0    0 -0.34437966088E-01 -0.23686286986E-01  0.38408043755E+00  0.38634836266E+00  0.51100000000E-03 0.  1.
<mgrwt>
<rscale>  0 0.17400119E+03</rscale>
<asrwt>0</asrwt>
<pdfrwt beam="1">  1       11 0.10000000E+01 0.17400119E+03</pdfrwt>
<pdfrwt beam="2">  1  9000002 0.10000000E+01 0.17400119E+03</pdfrwt>
<totfact> 0.10000000E+01</totfact>
</mgrwt>
</event>
<event>
 6   1  0.1010085E+08  0.1740006E+03  0.7818608E-02  0.1078737E+00
       11   -1    0    0    0    0  0.00000000000E+00  0.00000000000E+00  0.10499998757E+01  0.10500000000E+01  0.51100000000E-03 0.  1.
  9000002   -1    0    0    0    0  0.00000000000E+00  0.00000000000E+00 -0.50581761002E-12  0.17400000000E+03  0.17400000000E+03 0.  1.
       11    1    1    2    0    0 -0.18312795719E-02 -0.15181305907E-03  0.45607393473E+00  0.45607792283E+00  0.51100000000E-03 0.  1.
  9000002    1    1    2    0    0 -0.65450503657E-02 -0.14963482037E-01  0.35124699517E-03  0.17400000077E+03  0.17400000000E+03 0.  1.
       11    1    1    2    0    0  0.68224390217E-02  0.11284097310E-01  0.27225953053E+00  0.27257914376E+00  0.51100000000E-03 0. -1.
      -11    1    1    2    0    0  0.15538909159E-02  0.38311977867E-02  0.32131516340E+00  0.32134216655E+00  0.51100000000E-03 0.  1.
<mgrwt>
<rscale>  0 0.17400059E+03</rscale>
<asrwt>0</asrwt>
<pdfrwt beam="1">  1       11 0.10000000E+01 0.17400059E+03</pdfrwt>
<pdfrwt beam="2">  1  9000002 0.10000000E+01 0.17400059E+03</pdfrwt>
<totfact> 0.10000000E+01</totfact>
</mgrwt>
</event>
<event>
 6   1  0.1010085E+08  0.1740006E+03  0.7818608E-02  0.1078737E+00
       11   -1    0    0    0    0  0.00000000000E+00  0.00000000000E+00  0.10499998757E+01  0.10500000000E+01  0.51100000000E-03 0.  1.
  9000002   -1    0    0    0    0  0.00000000000E+00  0.00000000000E+00 -0.50581761002E-12  0.17400000000E+03  0.17400000000E+03 0.  1.
       11    1    1    2    0    0 -0.43420506587E-03 -0.21518060032E-04  0.46905868924E+00  0.46905916905E+00  0.51100000000E-03 0.  1.
  9000002    1    1    2    0    0  0.46196950098E-02  0.46033556175E-03  0.14293817045E-03  0.17400000006E+03  0.17400000000E+03 0.  1.
       11    1    1    2    0    0 -0.13213156815E-02  0.47858986915E-02  0.12004717414E+00  0.12015088781E+00  0.51100000000E-03 0. -1.
      -11    1    1    2    0    0 -0.28641742624E-02 -0.52247161932E-02  0.46075107411E+00  0.46078988115E+00  0.51100000000E-03 0.  1.
<mgrwt>
<rscale>  0 0.17400063E+03</rscale>
<asrwt>0</asrwt>
<pdfrwt beam="1">  1       11 0.10000000E+01 0.17400063E+03</pdfrwt>
<pdfrwt beam="2">  1  9000002 0.10000000E+01 0.17400063E+03</pdfrwt>
<totfact> 0.10000000E+01</totfact>
</mgrwt>
</event>
<event>
 6   1  0.1010085E+08  0.1740010E+03  0.7818608E-02  0.1078737E+00
       11   -1    0    0    0    0  0.00000000000E+00  0.00000000000E+00  0.10499998757E+01  0.10500000000E+01  0.51100000000E-03 0.  1.
  9000002   -1    0    0    0    0  0.00000000000E+00  0.00000000000E+00 -0.50581761002E-12  0.17400000000E+03  0.17400000000E+03 0. -1.
       11    1    1    2    0    0  0.12956785760E-02 -0.16572069637E-02  0.23184666640E+00  0.23185677250E+00  0.51100000000E-03 0.  1.
  9000002    1    1    2    0    0 -0.25356485921E-03  0.23806790528E-04  0.11035608786E-03  0.17400000000E+03  0.17400000000E+03 0. -1.
       11    1    1    2    0    0  0.40203861157E-03 -0.51694020872E-02  0.22985721500E+00  0.22991625597E+00  0.51100000000E-03 0. -1.
      -11    1    1    2    0    0 -0.14441523284E-02  0.68028022604E-02  0.58818563818E+00  0.58822697131E+00  0.51100000000E-03 0.  1.
<mgrwt>
<rscale>  0 0.17400099E+03</rscale>
<asrwt>0</asrwt>
<pdfrwt beam="1">  1       11 0.10000000E+01 0.17400099E+03</pdfrwt>
<pdfrwt beam="2">  1  9000002 0.10000000E+01 0.17400099E+03</pdfrwt>
<totfact> 0.10000000E+01</totfact>
</mgrwt>
</event>
<event>
 6   1  0.1010085E+08  0.1740010E+03  0.7818608E-02  0.1078737E+00
       11   -1    0    0    0    0  0.00000000000E+00  0.00000000000E+00  0.10499998757E+01  0.10500000000E+01  0.51100000000E-03 0.  1.
  9000002   -1    0    0    0    0  0.00000000000E+00  0.00000000000E+00 -0.50581761002E-12  0.17400000000E+03  0.17400000000E+03 0.  1.
       11    1    1    2    0    0  0.46905175191E-02 -0.59165342058E-02  0.59155357956E+00  0.59160198186E+00  0.51100000000E-03 0.  1.
  9000002    1    1    2    0    0 -0.16837129705E-03  0.11123436094E-03  0.16365181382E-03  0.17400000000E+03  0.17400000000E+03 0.  1.
       11    1    1    2    0    0 -0.28346056405E-03  0.25402718235E-02  0.32047550825E+00  0.32048610865E+00  0.51100000000E-03 0.  1.
      -11    1    1    2    0    0 -0.42386856580E-02  0.32650280214E-02  0.13780713603E+00  0.13791190929E+00  0.51100000000E-03 0. -1.
<mgrwt>
<rscale>  0 0.17400100E+03</rscale>
<asrwt>0</asrwt>
<pdfrwt beam="1">  1       11 0.10000000E+01 0.17400100E+03</pdfrwt>
<pdfrwt beam="2">  1  9000002 0.10000000E+01 0.17400100E+03</pdfrwt>
<totfact> 0.10000000E+01</totfact>
</mgrwt>
</event>
<event>
 6   1  0.1010085E+08  0.1740006E+03  0.7818608E-02  0.1078737E+00
       11   -1    0    0    0    0  0.00000000000E+00  0.00000000000E+00  0.10499998757E+01  0.10500000000E+01  0.51100000000E-03 0. -1.
  9000002   -1    0    0    0    0  0.00000000000E+00  0.00000000000E+00 -0.50581761002E-12  0.17400000000E+03  0.17400000000E+03 0.  1.
       11    1    1    2    0    0  0.48452289935E-02 -0.11618474637E-01  0.26137910125E+00  0.26168255748E+00  0.51100000000E-03 0.  1.
  9000002    1    1    2    0    0  0.67162320918E-03  0.12153698518E-02  0.43222082307E-03  0.17400000001E+03  0.17400000000E+03 0.  1.
       11    1    1    2    0    0  0.98554613274E-03  0.20872981987E-02  0.32383283923E+00  0.32384146894E+00  0.51100000000E-03 0. -1.
      -11    1    1    2    0    0 -0.65023983354E-02  0.83158065869E-02  0.46435571435E+00  0.46447596751E+00  0.51100000000E-03 0. -1.
<mgrwt>
<rscale>  0 0.17400062E+03</rscale>
<asrwt>0</asrwt>
<pdfrwt beam="1">  1       11 0.10000000E+01 0.17400062E+03</pdfrwt>
<pdfrwt beam="2">  1  9000002 0.10000000E+01 0.17400062E+03</pdfrwt>
<totfact> 0.10000000E+01</totfact>
</mgrwt>
</event>
<event>
 6   1  0.1010085E+08  0.1740011E+03  0.7818608E-02  0.1078737E+00
       11   -1    0    0    0    0  0.00000000000E+00  0.00000000000E+00  0.10499998757E+01  0.10500000000E+01  0.51100000000E-03 0. -1.
  9000002   -1    0    0    0    0  0.00000000000E+00  0.00000000000E+00 -0.50581761002E-12  0.17400000000E+03  0.17400000000E+03 0.  1.
       11    1    1    2    0    0 -0.60137908295E-02 -0.75807736602E-02  0.63402215340E+00  0.63409619612E+00  0.51100000000E-03 0. -1.
  9000002    1    1    2    0    0 -0.16552600381E-02  0.14277779639E-02  0.34753012577E-03  0.17400000001E+03  0.17400000000E+03 0.  1.
       11    1    1    2    0    0  0.11845880609E-02  0.25374935861E-02  0.30946477704E+00  0.30947786911E+00  0.51100000000E-03 0. -1.
      -11    1    1    2    0    0  0.64844628067E-02  0.36155021102E-02  0.10616541509E+00  0.10642592070E+00  0.51100000000E-03 0.  1.
<mgrwt>
<rscale>  0 0.17400115E+03</rscale>
<asrwt>0</asrwt>
<pdfrwt beam="1">  1       11 0.10000000E+01 0.17400115E+03</pdfrwt>
<pdfrwt beam="2">  1  9000002 0.10000000E+01 0.17400115E+03</pdfrwt>
<totfact> 0.10000000E+01</totfact>
</mgrwt>
</event>
<event>
 6   1  0.1010085E+08  0.1740011E+03  0.7818608E-02  0.1078737E+00
       11   -1    0    0    0    0  0.00000000000E+00  0.00000000000E+00  0.10499998757E+01  0.10500000000E+01  0.51100000000E-03 0.  1.
  9000002   -1    0    0    0    0  0.00000000000E+00  0.00000000000E+00 -0.50581761002E-12  0.17400000000E+03  0.17400000000E+03 0.  1.
       11    1    1    2    0    0 -0.41270962794E-02  0.77643357045E-02  0.61459523606E+00  0.61465834668E+00  0.51100000000E-03 0.  1.
  9000002    1    1    2    0    0  0.42011412972E-02 -0.10155226426E-02  0.34375349265E-03  0.17400000005E+03  0.17400000000E+03 0.  1.
       11    1    1    2    0    0 -0.10166994336E-02  0.34435514461E-02  0.22652349804E+00  0.22655252815E+00  0.51100000000E-03 0. -1.
      -11    1    1    2    0    0  0.94265441589E-03 -0.10192364508E-01  0.20853738806E+00  0.20878907115E+00  0.51100000000E-03 0.  1.
<mgrwt>
<rscale>  0 0.17400108E+03</rscale>
<asrwt>0</asrwt>
<pdfrwt beam="1">  1       11 0.10000000E+01 0.17400108E+03</pdfrwt>
<pdfrwt beam="2">  1  9000002 0.10000000E+01 0.17400108E+03</pdfrwt>
<totfact> 0.10000000E+01</totfact>
</mgrwt>
</event>
<event>
 6   1  0.1010085E+08  0.1740007E+03  0.7818608E-02  0.1078737E+00
       11   -1    0    0    0    0  0.00000000000E+00  0.00000000000E+00  0.10499998757E+01  0.10500000000E+01  0.51100000000E-03 0.  1.
  9000002   -1    0    0    0    0  0.00000000000E+00  0.00000000000E+00 -0.50581761002E-12  0.17400000000E+03  0.17400000000E+03 0.  1.
       11    1    1    2    0    0 -0.23292691279E-01 -0.10215135538E-02  0.45905316367E+00  0.45964514699E+00  0.51100000000E-03 0.  1.
  9000002    1    1    2    0    0  0.61498134041E-02 -0.22462647524E-02  0.36659568440E-02  0.17400000016E+03  0.17400000000E+03 0.  1.
       11    1    1    2    0    0  0.24253600902E-01 -0.16286016578E-01  0.49010060428E+00  0.49097080864E+00  0.51100000000E-03 0.  1.
      -11    1    1    2    0    0 -0.71107230275E-02  0.19553794884E-01  0.97180150859E-01  0.99383882575E-01  0.51100000000E-03 0. -1.
<mgrwt>
<rscale>  0 0.17400069E+03</rscale>
<asrwt>0</asrwt>
<pdfrwt beam="1">  1       11 0.10000000E+01 0.17400069E+03</pdfrwt>
<pdfrwt beam="2">  1  9000002 0.10000000E+01 0.17400069E+03</pdfrwt>
<totfact> 0.10000000E+01</totfact>
</mgrwt>
</event>
<event>
 6   1  0.1010085E+08  0.1740007E+03  0.7818608E-02  0.1078737E+00
       11   -1    0    0    0    0  0.00000000000E+00  0.00000000000E+00  0.10499998757E+01  0.10500000000E+01  0.51100000000E-03 0.  1.
  9000002   -1    0    0    0    0  0.00000000000E+00  0.00000000000E+00 -0.50581761002E-12  0.17400000000E+03  0.17400000000E+03 0.  1.
       11    1    1    2    0    0  0.38686366711E-03 -0.30476913012E-03  0.49952020082E+00  0.49952070498E+00  0.51100000000E-03 0.  1.
  9000002    1    1    2    0    0  0.82349015498E-02 -0.25006703338E-01  0.85554013347E-03  0.17400000199E+03  0.17400000000E+03 0.  1.
       11    1    1    2    0    0 -0.23088625285E-02 -0.16176881363E-02  0.66635730311E-01  0.66697297058E-01  0.51100000000E-03 0. -1.
      -11    1    1    2    0    0 -0.63129026885E-02  0.26929160605E-01  0.48298840439E+00  0.48378000406E+00  0.51100000000E-03 0.  1.
<mgrwt>
<rscale>  0 0.17400071E+03</rscale>
<asrwt>0</asrwt>
<pdfrwt beam="1">  1       11 0.10000000E+01 0.17400071E+03</pdfrwt>
<pdfrwt beam="2">  1  9000002 0.10000000E+01 0.17400071E+03</pdfrwt>
<totfact> 0.10000000E+01</totfact>
</mgrwt>
</event>
<event>
 6   1  0.1010085E+08  0.1740009E+03  0.7818608E-02  0.1078737E+00
       11   -1    0    0    0    0  0.00000000000E+00  0.00000000000E+00  0.10499998757E+01  0.10500000000E+01  0.51100000000E-03 0. -1.
  9000002   -1    0    0    0    0  0.00000000000E+00  0.00000000000E+00 -0.50581761002E-12  0.17400000000E+03  0.17400000000E+03 0.  1.
       11    1    1    2    0    0 -0.10539632553E-01  0.30372980094E-02  0.40493063517E+00  0.40507948534E+00  0.51100000000E-03 0. -1.
  9000002    1    1    2    0    0  0.18156278387E-01  0.42391445979E-01  0.16470361926E-01  0.17400000689E+03  0.17400000000E+03 0.  1.
       11    1    1    2    0    0 -0.31830341766E-01 -0.31506297862E-01  0.56343835579E-01  0.71977124069E-01  0.51100000000E-03 0. -1.
      -11    1    1    2    0    0  0.24213695933E-01 -0.13922446126E-01  0.57225504299E+00  0.57293649990E+00  0.51100000000E-03 0.  1.
<mgrwt>
<rscale>  0 0.17400094E+03</rscale>
<asrwt>0</asrwt>
<pdfrwt beam="1">  1       11 0.10000000E+01 0.17400094E+03</pdfrwt>
<pdfrwt beam="2">  1  9000002 0.10000000E+01 0.17400094E+03</pdfrwt>
<totfact> 0.10000000E+01</totfact>
</mgrwt>
</event>
<event>
 6   1  0.1010085E+08  0.1740017E+03  0.7818608E-02  0.1078736E+00
       11   -1    0    0    0    0  0.00000000000E+00  0.00000000000E+00  0.10499998757E+01  0.10500000000E+01  0.51100000000E-03 0. -1.
  9000002   -1    0    0    0    0  0.00000000000E+00  0.00000000000E+00 -0.50581761002E-12  0.17400000000E+03  0.17400000000E+03 0. -1.
       11    1    1    2    0    0  0.18679458814E-02 -0.41501650248E-02  0.20050219355E+00  0.20055449093E+00  0.51100000000E-03 0. -1.
  9000002    1    1    2    0    0 -0.53218900055E-03  0.62680495554E-04  0.46110742363E-03  0.17400000000E+03  0.17400000000E+03 0. -1.
       11    1    1    2    0    0 -0.31232516461E-02  0.10496689840E-01  0.78215327137E+00  0.78223010440E+00  0.51100000000E-03 0. -1.
      -11    1    1    2    0    0  0.17874947653E-02 -0.64092053105E-02  0.66883303312E-01  0.67215403231E-01  0.51100000000E-03 0.  1.
<mgrwt>
<rscale>  0 0.17400174E+03</rscale>
<asrwt>0</asrwt>
<pdfrwt beam="1">  1       11 0.10000000E+01 0.17400174E+03</pdfrwt>
<pdfrwt beam="2">  1  9000002 0.10000000E+01 0.17400174E+03</pdfrwt>
<totfact> 0.10000000E+01</totfact>
</mgrwt>
</event>
<event>
 6   1  0.1010085E+08  0.1740008E+03  0.7818608E-02  0.1078737E+00
       11   -1    0    0    0    0  0.00000000000E+00  0.00000000000E+00  0.10499998757E+01  0.10500000000E+01  0.51100000000E-03 0. -1.
  9000002   -1    0    0    0    0  0.00000000000E+00  0.00000000000E+00 -0.50581761002E-12  0.17400000000E+03  0.17400000000E+03 0. -1.
       11    1    1    2    0    0 -0.11142396412E-02 -0.61769073684E-03  0.32184937227E+00  0.32185229939E+00  0.51100000000E-03 0. -1.
  9000002    1    1    2    0    0  0.83256751497E-02  0.78774777470E-02  0.34207950884E-03  0.17400000038E+03  0.17400000000E+03 0. -1.
       11    1    1    2    0    0 -0.18796575213E-02  0.68253236324E-02  0.21170089441E+00  0.21181984791E+00  0.51100000000E-03 0.  1.
      -11    1    1    2    0    0 -0.53317779871E-02 -0.14085110643E-01  0.51610752947E+00  0.51632747486E+00  0.51100000000E-03 0. -1.
<mgrwt>
<rscale>  0 0.17400076E+03</rscale>
<asrwt>0</asrwt>
<pdfrwt beam="1">  1       11 0.10000000E+01 0.17400076E+03</pdfrwt>
<pdfrwt beam="2">  1  9000002 0.10000000E+01 0.17400076E+03</pdfrwt>
<totfact> 0.10000000E+01</totfact>
</mgrwt>
</event>
<event>
 6   1  0.1010085E+08  0.1740008E+03  0.7818608E-02  0.1078737E+00
       11   -1    0    0    0    0  0.00000000000E+00  0.00000000000E+00  0.10499998757E+01  0.10500000000E+01  0.51100000000E-03 0. -1.
  9000002   -1    0    0    0    0  0.00000000000E+00  0.00000000000E+00 -0.50581761002E-12  0.17400000000E+03  0.17400000000E+03 0. -1.
       11    1    1    2    0    0 -0.11270898603E-02 -0.44354374271E-02  0.52121648583E+00  0.52123682684E+00  0.51100000000E-03 0. -1.
  9000002    1    1    2    0    0  0.73638530005E-03 -0.20477727113E-02  0.27299470904E-03  0.17400000001E+03  0.17400000000E+03 0. -1.
       11    1    1    2    0    0 -0.63118773421E-02  0.43413690421E-02  0.38781422966E+00  0.38789022303E+00  0.51100000000E-03 0. -1.
      -11    1    1    2    0    0  0.67025819023E-02  0.21418410963E-02  0.14069616546E+00  0.14087293630E+00  0.51100000000E-03 0.  1.
<mgrwt>
<rscale>  0 0.17400078E+03</rscale>
<asrwt>0</asrwt>
<pdfrwt beam="1">  1       11 0.10000000E+01 0.17400078E+03</pdfrwt>
<pdfrwt beam="2">  1  9000002 0.10000000E+01 0.17400078E+03</pdfrwt>
<totfact> 0.10000000E+01</totfact>
</mgrwt>
</event>
<event>
 6   1  0.1010085E+08  0.1740008E+03  0.7818608E-02  0.1078737E+00
       11   -1    0    0    0    0  0.00000000000E+00  0.00000000000E+00  0.10499998757E+01  0.10500000000E+01  0.51100000000E-03 0. -1.
  9000002   -1    0    0    0    0  0.00000000000E+00  0.00000000000E+00 -0.50581761002E-12  0.17400000000E+03  0.17400000000E+03 0.  1.
       11    1    1    2    0    0  0.10370916098E-02  0.26077880221E-02  0.36592097619E-01  0.36703117651E-01  0.51100000000E-03 0.  1.
  9000002    1    1    2    0    0 -0.73633431230E-03  0.36357246909E-03  0.30913417462E-03  0.17400000000E+03  0.17400000000E+03 0.  1.
       11    1    1    2    0    0 -0.61421109766E-02  0.64579009635E-02  0.46887052903E+00  0.46895550335E+00  0.51100000000E-03 0. -1.
      -11    1    1    2    0    0  0.58413536791E-02 -0.94292614547E-02  0.54422811484E+00  0.54434137679E+00  0.51100000000E-03 0. -1.
<mgrwt>
<rscale>  0 0.17400085E+03</rscale>
<asrwt>0</asrwt>
<pdfrwt beam="1">  1       11 0.10000000E+01 0.17400085E+03</pdfrwt>
<pdfrwt beam="2">  1  9000002 0.10000000E+01 0.17400085E+03</pdfrwt>
<totfact> 0.10000000E+01</totfact>
</mgrwt>
</event>
<event>
 6   1  0.1010085E+08  0.1740022E+03  0.7818608E-02  0.1078736E+00
       11   -1    0    0    0    0  0.00000000000E+00  0.00000000000E+00  0.10499998757E+01  0.10500000000E+01  0.51100000000E-03 0. -1.
  9000002   -1    0    0    0    0  0.00000000000E+00  0.00000000000E+00 -0.50581761002E-12  0.17400000000E+03  0.17400000000E+03 0. -1.
       11    1    1    2    0    0 -0.20644313724E-02  0.28109262342E-02  0.25936305863E-02  0.43762110311E-02  0.51100000000E-03 0. -1.
  9000002    1    1    2    0    0  0.71186943280E-03  0.15579451925E-01  0.13811212001E-01  0.17400000125E+03  0.17400000000E+03 0. -1.
       11    1    1    2    0    0  0.54738915000E-01 -0.31464015008E-01  0.88394740423E+00  0.88619953037E+00  0.51100000000E-03 0. -1.
      -11    1    1    2    0    0 -0.53386353060E-01  0.13073636849E-01  0.14964762884E+00  0.15942301155E+00  0.51100000000E-03 0.  1.
<mgrwt>
<rscale>  0 0.17400223E+03</rscale>
<asrwt>0</asrwt>
<pdfrwt beam="1">  1       11 0.10000000E+01 0.17400223E+03</pdfrwt>
<pdfrwt beam="2">  1  9000002 0.10000000E+01 0.17400223E+03</pdfrwt>
<totfact> 0.10000000E+01</totfact>
</mgrwt>
</event>
<event>
 6   1  0.1010085E+08  0.1740008E+03  0.7818608E-02  0.1078737E+00
       11   -1    0    0    0    0  0.00000000000E+00  0.00000000000E+00  0.10499998757E+01  0.10500000000E+01  0.51100000000E-03 0. -1.
  9000002   -1    0    0    0    0  0.00000000000E+00  0.00000000000E+00 -0.50581761002E-12  0.17400000000E+03  0.17400000000E+03 0. -1.
       11    1    1    2    0    0  0.54391245645E-03 -0.11200222431E-02  0.22474035071E+00  0.22474438068E+00  0.51100000000E-03 0. -1.
  9000002    1    1    2    0    0  0.18941180643E-01  0.20947425988E-01  0.27019326979E-02  0.17400000231E+03  0.17400000000E+03 0. -1.
       11    1    1    2    0    0 -0.28426950722E-01 -0.25771404693E-01  0.28312688091E+00  0.28571550298E+00  0.51100000000E-03 0.  1.
      -11    1    1    2    0    0  0.89418576225E-02  0.59440009481E-02  0.53943071134E+00  0.53953780351E+00  0.51100000000E-03 0. -1.
<mgrwt>
<rscale>  0 0.17400083E+03</rscale>
<asrwt>0</asrwt>
<pdfrwt beam="1">  1       11 0.10000000E+01 0.17400083E+03</pdfrwt>
<pdfrwt beam="2">  1  9000002 0.10000000E+01 0.17400083E+03</pdfrwt>
<totfact> 0.10000000E+01</totfact>
</mgrwt>
</event>
<event>
 6   1  0.1010085E+08  0.1740008E+03  0.7818608E-02  0.1078737E+00
       11   -1    0    0    0    0  0.00000000000E+00  0.00000000000E+00  0.10499998757E+01  0.10500000000E+01  0.51100000000E-03 0. -1.
  9000002   -1    0    0    0    0  0.00000000000E+00  0.00000000000E+00 -0.50581761002E-12  0.17400000000E+03  0.17400000000E+03 0.  1.
       11    1    1    2    0    0  0.73146567337E-03  0.46414264382E-03  0.21976816700E+00  0.21977046849E+00  0.51100000000E-03 0.  1.
  9000002    1    1    2    0    0  0.36277259268E-03 -0.54116822971E-03  0.65365431355E-03  0.17400000000E+03  0.17400000000E+03 0.  1.
       11    1    1    2    0    0 -0.11996804279E-01  0.10684144043E-01  0.29751381231E+00  0.29794765292E+00  0.51100000000E-03 0.  1.
      -11    1    1    2    0    0  0.10902566013E-01 -0.10607118457E-01  0.53206424202E+00  0.53228187614E+00  0.51100000000E-03 0. -1.
<mgrwt>
<rscale>  0 0.17400081E+03</rscale>
<asrwt>0</asrwt>
<pdfrwt beam="1">  1       11 0.10000000E+01 0.17400081E+03</pdfrwt>
<pdfrwt beam="2">  1  9000002 0.10000000E+01 0.17400081E+03</pdfrwt>
<totfact> 0.10000000E+01</totfact>
</mgrwt>
</event>
<event>
 6   1  0.1010085E+08  0.1740007E+03  0.7818608E-02  0.1078737E+00
       11   -1    0    0    0    0  0.00000000000E+00  0.00000000000E+00  0.10499998757E+01  0.10500000000E+01  0.51100000000E-03 0. -1.
  9000002   -1    0    0    0    0  0.00000000000E+00  0.00000000000E+00 -0.50581761002E-12  0.17400000000E+03  0.17400000000E+03 0.  1.
       11    1    1    2    0    0  0.19343334737E-03  0.98861605433E-03  0.47785837447E+00  0.47785970949E+00  0.51100000000E-03 0. -1.
  9000002    1    1    2    0    0 -0.97559622980E-03 -0.21938090205E-02  0.10243326145E-03  0.17400000002E+03  0.17400000000E+03 0.  1.
       11    1    1    2    0    0  0.26432606104E-03  0.49818366042E-02  0.47295753219E+00  0.47298411912E+00  0.51100000000E-03 0. -1.
      -11    1    1    2    0    0  0.51783682139E-03 -0.37766436380E-02  0.99081535736E-01  0.99156154802E-01  0.51100000000E-03 0.  1.
<mgrwt>
<rscale>  0 0.17400065E+03</rscale>
<asrwt>0</asrwt>
<pdfrwt beam="1">  1       11 0.10000000E+01 0.17400065E+03</pdfrwt>
<pdfrwt beam="2">  1  9000002 0.10000000E+01 0.17400065E+03</pdfrwt>
<totfact> 0.10000000E+01</totfact>
</mgrwt>
</event>
<event>
 6   1  0.1010085E+08  0.1740017E+03  0.7818608E-02  0.1078736E+00
       11   -1    0    0    0    0  0.00000000000E+00  0.00000000000E+00  0.10499998757E+01  0.10500000000E+01  0.51100000000E-03 0.  1.
  9000002   -1    0    0    0    0  0.00000000000E+00  0.00000000000E+00 -0.50581761002E-12  0.17400000000E+03  0.17400000000E+03 0. -1.
       11    1    1    2    0    0  0.52077251228E-02 -0.86108900104E-02  0.30853513378E-01  0.32457175449E-01  0.51100000000E-03 0.  1.
  9000002    1    1    2    0    0 -0.39013014466E-02  0.46781927845E-02  0.25463034094E-02  0.17400000013E+03  0.17400000000E+03 0. -1.
       11    1    1    2    0    0  0.83034047743E-02 -0.12797419012E-01  0.78234874995E+00  0.78249763459E+00  0.51100000000E-03 0.  1.
      -11    1    1    2    0    0 -0.96098284504E-02  0.16730116237E-01  0.23425130892E+00  0.23504506470E+00  0.51100000000E-03 0. -1.
<mgrwt>
<rscale>  0 0.17400174E+03</rscale>
<asrwt>0</asrwt>
<pdfrwt beam="1">  1       11 0.10000000E+01 0.17400174E+03</pdfrwt>
<pdfrwt beam="2">  1  9000002 0.10000000E+01 0.17400174E+03</pdfrwt>
<totfact> 0.10000000E+01</totfact>
</mgrwt>
</event>
<event>
 6   1  0.1010085E+08  0.1740012E+03  0.7818608E-02  0.1078737E+00
       11   -1    0    0    0    0  0.00000000000E+00  0.00000000000E+00  0.10499998757E+01  0.10500000000E+01  0.51100000000E-03 0.  1.
  9000002   -1    0    0    0    0  0.00000000000E+00  0.00000000000E+00 -0.50581761002E-12  0.17400000000E+03  0.17400000000E+03 0. -1.
       11    1    1    2    0    0  0.46819881175E-02  0.72058307959E-02  0.33781642731E+00  0.33792609354E+00  0.51100000000E-03 0.  1.
  9000002    1    1    2    0    0  0.73777575025E-03  0.19231123335E-03  0.42208811717E-03  0.17400000000E+03  0.17400000000E+03 0. -1.
       11    1    1    2    0    0 -0.45162843364E-02 -0.11884722720E-01  0.65578668932E+00  0.65591012072E+00  0.51100000000E-03 0.  1.
      -11    1    1    2    0    0 -0.90347953133E-03  0.44865806906E-02  0.55974670911E-01  0.56163783562E-01  0.51100000000E-03 0. -1.
<mgrwt>
<rscale>  0 0.17400123E+03</rscale>
<asrwt>0</asrwt>
<pdfrwt beam="1">  1       11 0.10000000E+01 0.17400123E+03</pdfrwt>
<pdfrwt beam="2">  1  9000002 0.10000000E+01 0.17400123E+03</pdfrwt>
<totfact> 0.10000000E+01</totfact>
</mgrwt>
</event>
<event>
 6   1  0.1010085E+08  0.1740007E+03  0.7818608E-02  0.1078737E+00
       11   -1    0    0    0    0  0.00000000000E+00  0.00000000000E+00  0.10499998757E+01  0.10500000000E+01  0.51100000000E-03 0. -1.
  9000002   -1    0    0    0    0  0.00000000000E+00  0.00000000000E+00 -0.50581761002E-12  0.17400000000E+03  0.17400000000E+03 0.  1.
       11    1    1    2    0    0 -0.24442273784E-03 -0.56904583250E-03  0.51009073223E+00  0.51009136416E+00  0.51100000000E-03 0. -1.
  9000002    1    1    2    0    0  0.17294845289E-02 -0.22527761861E-02  0.44471515099E-03  0.17400000002E+03  0.17400000000E+03 0.  1.
       11    1    1    2    0    0 -0.43871330229E-02  0.11509199678E-01  0.25737359432E+00  0.25766865697E+00  0.51100000000E-03 0. -1.
      -11    1    1    2    0    0  0.29020712318E-02 -0.86873776591E-02  0.28209083396E+00  0.28223995513E+00  0.51100000000E-03 0.  1.
<mgrwt>
<rscale>  0 0.17400074E+03</rscale>
<asrwt>0</asrwt>
<pdfrwt beam="1">  1       11 0.10000000E+01 0.17400074E+03</pdfrwt>
<pdfrwt beam="2">  1  9000002 0.10000000E+01 0.17400074E+03</pdfrwt>
<totfact> 0.10000000E+01</totfact>
</mgrwt>
</event>
<event>
 6   1  0.1010085E+08  0.1740011E+03  0.7818608E-02  0.1078737E+00
       11   -1    0    0    0    0  0.00000000000E+00  0.00000000000E+00  0.10499998757E+01  0.10500000000E+01  0.51100000000E-03 0.  1.
  9000002   -1    0    0    0    0  0.00000000000E+00  0.00000000000E+00 -0.50581761002E-12  0.17400000000E+03  0.17400000000E+03 0. -1.
       11    1    1    2    0    0 -0.27482974792E-02  0.25099711502E-02  0.10341960674E+00  0.10348782185E+00  0.51100000000E-03 0. -1.
  9000002    1    1    2    0    0  0.23515730304E-02  0.50549689713E-03  0.13647466888E-03  0.17400000002E+03  0.17400000000E+03 0. -1.
       11    1    1    2    0    0 -0.17289479119E-02 -0.67542643918E-02  0.62823672559E+00  0.62827561934E+00  0.51100000000E-03 0.  1.
      -11    1    1    2    0    0  0.21256723607E-02  0.37387963445E-02  0.31820706866E+00  0.31823654213E+00  0.51100000000E-03 0.  1.
<mgrwt>
<rscale>  0 0.17400113E+03</rscale>
<asrwt>0</asrwt>
<pdfrwt beam="1">  1       11 0.10000000E+01 0.17400113E+03</pdfrwt>
<pdfrwt beam="2">  1  9000002 0.10000000E+01 0.17400113E+03</pdfrwt>
<totfact> 0.10000000E+01</totfact>
</mgrwt>
</event>
<event>
 6   1  0.1010085E+08  0.1740009E+03  0.7818608E-02  0.1078737E+00
       11   -1    0    0    0    0  0.00000000000E+00  0.00000000000E+00  0.10499998757E+01  0.10500000000E+01  0.51100000000E-03 0.  1.
  9000002   -1    0    0    0    0  0.00000000000E+00  0.00000000000E+00 -0.50581761002E-12  0.17400000000E+03  0.17400000000E+03 0.  1.
       11    1    1    2    0    0  0.21083669251E-02 -0.62782079335E-03  0.54664430096E+00  0.54664896621E+00  0.51100000000E-03 0.  1.
  9000002    1    1    2    0    0 -0.47427542018E-02 -0.22691179824E-03  0.15606714446E-03  0.17400000006E+03  0.17400000000E+03 0.  1.
       11    1    1    2    0    0  0.15041273389E-02  0.54410543744E-02  0.13270278474E+00  0.13282378427E+00  0.51100000000E-03 0.  1.
      -11    1    1    2    0    0  0.11302599378E-02 -0.45863217828E-02  0.37049672281E+00  0.37052718466E+00  0.51100000000E-03 0. -1.
<mgrwt>
<rscale>  0 0.17400085E+03</rscale>
<asrwt>0</asrwt>
<pdfrwt beam="1">  1       11 0.10000000E+01 0.17400085E+03</pdfrwt>
<pdfrwt beam="2">  1  9000002 0.10000000E+01 0.17400085E+03</pdfrwt>
<totfact> 0.10000000E+01</totfact>
</mgrwt>
</event>
<event>
 6   1  0.1010085E+08  0.1740011E+03  0.7818608E-02  0.1078737E+00
       11   -1    0    0    0    0  0.00000000000E+00  0.00000000000E+00  0.10499998757E+01  0.10500000000E+01  0.51100000000E-03 0. -1.
  9000002   -1    0    0    0    0  0.00000000000E+00  0.00000000000E+00 -0.50581761002E-12  0.17400000000E+03  0.17400000000E+03 0. -1.
       11    1    1    2    0    0  0.35120547311E-02 -0.51212867337E-02  0.10149369054E+00  0.10168476998E+00  0.51100000000E-03 0. -1.
  9000002    1    1    2    0    0 -0.67955481099E-02  0.15062816537E-02  0.37892930004E-03  0.17400000014E+03  0.17400000000E+03 0. -1.
       11    1    1    2    0    0 -0.24234766175E-02  0.97200899805E-02  0.61945395012E+00  0.61953515705E+00  0.51100000000E-03 0. -1.
      -11    1    1    2    0    0  0.57069699963E-02 -0.61050849005E-02  0.32867330570E+00  0.32877993334E+00  0.51100000000E-03 0.  1.
<mgrwt>
<rscale>  0 0.17400110E+03</rscale>
<asrwt>0</asrwt>
<pdfrwt beam="1">  1       11 0.10000000E+01 0.17400110E+03</pdfrwt>
<pdfrwt beam="2">  1  9000002 0.10000000E+01 0.17400110E+03</pdfrwt>
<totfact> 0.10000000E+01</totfact>
</mgrwt>
</event>
<event>
 6   1  0.1010085E+08  0.1740009E+03  0.7818608E-02  0.1078737E+00
       11   -1    0    0    0    0  0.00000000000E+00  0.00000000000E+00  0.10499998757E+01  0.10500000000E+01  0.51100000000E-03 0. -1.
  9000002   -1    0    0    0    0  0.00000000000E+00  0.00000000000E+00 -0.50581761002E-12  0.17400000000E+03  0.17400000000E+03 0.  1.
       11    1    1    2    0    0  0.22381581143E-02  0.35415129102E-02  0.22294851945E+00  0.22298846408E+00  0.51100000000E-03 0. -1.
  9000002    1    1    2    0    0  0.19668393070E-02  0.29881910595E-02  0.77505177477E-03  0.17400000004E+03  0.17400000000E+03 0.  1.
       11    1    1    2    0    0  0.35684171133E-02 -0.17101835454E-01  0.26195124604E+00  0.26253366032E+00  0.51100000000E-03 0.  1.
      -11    1    1    2    0    0 -0.77734145346E-02  0.10572131484E-01  0.56432505839E+00  0.56447783710E+00  0.51100000000E-03 0. -1.
<mgrwt>
<rscale>  0 0.17400091E+03</rscale>
<asrwt>0</asrwt>
<pdfrwt beam="1">  1       11 0.10000000E+01 0.17400091E+03</pdfrwt>
<pdfrwt beam="2">  1  9000002 0.10000000E+01 0.17400091E+03</pdfrwt>
<totfact> 0.10000000E+01</totfact>
</mgrwt>
</event>
<event>
 6   1  0.1010085E+08  0.1740006E+03  0.7818608E-02  0.1078737E+00
       11   -1    0    0    0    0  0.00000000000E+00  0.00000000000E+00  0.10499998757E+01  0.10500000000E+01  0.51100000000E-03 0. -1.
  9000002   -1    0    0    0    0  0.00000000000E+00  0.00000000000E+00 -0.50581761002E-12  0.17400000000E+03  0.17400000000E+03 0. -1.
       11    1    1    2    0    0 -0.32605448903E-02  0.50806504778E-02  0.35172120235E+00  0.35177337799E+00  0.51100000000E-03 0. -1.
  9000002    1    1    2    0    0  0.22275731934E-02  0.75798993899E-03  0.10295081308E-03  0.17400000002E+03  0.17400000000E+03 0. -1.
       11    1    1    2    0    0  0.18265659562E-02 -0.11345467687E-02  0.44462843163E+00  0.44463392456E+00  0.51100000000E-03 0. -1.
      -11    1    1    2    0    0 -0.79359425926E-03 -0.47040936481E-02  0.25354729087E+00  0.25359268151E+00  0.51100000000E-03 0.  1.
<mgrwt>
<rscale>  0 0.17400057E+03</rscale>
<asrwt>0</asrwt>
<pdfrwt beam="1">  1       11 0.10000000E+01 0.17400057E+03</pdfrwt>
<pdfrwt beam="2">  1  9000002 0.10000000E+01 0.17400057E+03</pdfrwt>
<totfact> 0.10000000E+01</totfact>
</mgrwt>
</event>
<event>
 6   1  0.1010085E+08  0.1740006E+03  0.7818608E-02  0.1078737E+00
       11   -1    0    0    0    0  0.00000000000E+00  0.00000000000E+00  0.10499998757E+01  0.10500000000E+01  0.51100000000E-03 0.  1.
  9000002   -1    0    0    0    0  0.00000000000E+00  0.00000000000E+00 -0.50581761002E-12  0.17400000000E+03  0.17400000000E+03 0.  1.
       11    1    1    2    0    0 -0.39656970931E-02  0.18221523823E-01  0.28424078046E+00  0.28485230046E+00  0.51100000000E-03 0.  1.
  9000002    1    1    2    0    0 -0.20450750089E-02 -0.40510000014E-03  0.11976226506E-02  0.17400000002E+03  0.17400000000E+03 0.  1.
       11    1    1    2    0    0 -0.10945553255E-04  0.41289414835E-03  0.45000807726E+00  0.45000855694E+00  0.51100000000E-03 0.  1.
      -11    1    1    2    0    0  0.60217176552E-02 -0.18229317971E-01  0.31455339529E+00  0.31513912599E+00  0.51100000000E-03 0. -1.
<mgrwt>
<rscale>  0 0.17400058E+03</rscale>
<asrwt>0</asrwt>
<pdfrwt beam="1">  1       11 0.10000000E+01 0.17400058E+03</pdfrwt>
<pdfrwt beam="2">  1  9000002 0.10000000E+01 0.17400058E+03</pdfrwt>
<totfact> 0.10000000E+01</totfact>
</mgrwt>
</event>
<event>
 6   1  0.1010085E+08  0.1740013E+03  0.7818608E-02  0.1078737E+00
       11   -1    0    0    0    0  0.00000000000E+00  0.00000000000E+00  0.10499998757E+01  0.10500000000E+01  0.51100000000E-03 0.  1.
  9000002   -1    0    0    0    0  0.00000000000E+00  0.00000000000E+00 -0.50581761002E-12  0.17400000000E+03  0.17400000000E+03 0.  1.
       11    1    1    2    0    0 -0.72087562268E-03 -0.10532794699E-02  0.32348810204E+00  0.32349102358E+00  0.51100000000E-03 0.  1.
  9000002    1    1    2    0    0  0.23688934507E-02  0.15048522513E-02  0.94531500260E-03  0.17400000003E+03  0.17400000000E+03 0.  1.
       11    1    1    2    0    0 -0.34106279905E-02  0.95165930231E-02  0.58760400297E-01  0.59625864266E-01  0.51100000000E-03 0. -1.
      -11    1    1    2    0    0  0.17626101626E-02 -0.99681658044E-02  0.66680605832E+00  0.66688308695E+00  0.51100000000E-03 0.  1.
<mgrwt>
<rscale>  0 0.17400127E+03</rscale>
<asrwt>0</asrwt>
<pdfrwt beam="1">  1       11 0.10000000E+01 0.17400127E+03</pdfrwt>
<pdfrwt beam="2">  1  9000002 0.10000000E+01 0.17400127E+03</pdfrwt>
<totfact> 0.10000000E+01</totfact>
</mgrwt>
</event>
<event>
 6   1  0.1010085E+08  0.1740004E+03  0.7818608E-02  0.1078737E+00
       11   -1    0    0    0    0  0.00000000000E+00  0.00000000000E+00  0.10499998757E+01  0.10500000000E+01  0.51100000000E-03 0. -1.
  9000002   -1    0    0    0    0  0.00000000000E+00  0.00000000000E+00 -0.50581761002E-12  0.17400000000E+03  0.17400000000E+03 0.  1.
       11    1    1    2    0    0 -0.82674808346E-02  0.99663198273E-02  0.33014834572E+00  0.33040258788E+00  0.51100000000E-03 0.  1.
  9000002    1    1    2    0    0 -0.32509024741E-02  0.26639187174E-03  0.50907257617E-03  0.17400000003E+03  0.17400000000E+03 0.  1.
       11    1    1    2    0    0  0.25251095679E-02 -0.12319517432E-02  0.38773624347E+00  0.38774675950E+00  0.51100000000E-03 0. -1.
      -11    1    1    2    0    0  0.89932737409E-02 -0.90007599558E-02  0.33160621389E+00  0.33185062131E+00  0.51100000000E-03 0. -1.
<mgrwt>
<rscale>  0 0.17400043E+03</rscale>
<asrwt>0</asrwt>
<pdfrwt beam="1">  1       11 0.10000000E+01 0.17400043E+03</pdfrwt>
<pdfrwt beam="2">  1  9000002 0.10000000E+01 0.17400043E+03</pdfrwt>
<totfact> 0.10000000E+01</totfact>
</mgrwt>
</event>
<event>
 6   1  0.1010085E+08  0.1740006E+03  0.7818608E-02  0.1078737E+00
       11   -1    0    0    0    0  0.00000000000E+00  0.00000000000E+00  0.10499998757E+01  0.10500000000E+01  0.51100000000E-03 0.  1.
  9000002   -1    0    0    0    0  0.00000000000E+00  0.00000000000E+00 -0.50581761002E-12  0.17400000000E+03  0.17400000000E+03 0.  1.
       11    1    1    2    0    0  0.13896986406E-02 -0.22963327235E-02  0.30045487599E+00  0.30046729944E+00  0.51100000000E-03 0.  1.
  9000002    1    1    2    0    0  0.44326073915E-02 -0.17404515829E-02  0.44033372719E-03  0.17400000007E+03  0.17400000000E+03 0.  1.
       11    1    1    2    0    0 -0.21022417406E-02 -0.10251619755E-01  0.28293014245E+00  0.28312407483E+00  0.51100000000E-03 0. -1.
      -11    1    1    2    0    0 -0.37200642915E-02  0.14288404061E-01  0.46617452350E+00  0.46640856000E+00  0.51100000000E-03 0.  1.
<mgrwt>
<rscale>  0 0.17400062E+03</rscale>
<asrwt>0</asrwt>
<pdfrwt beam="1">  1       11 0.10000000E+01 0.17400062E+03</pdfrwt>
<pdfrwt beam="2">  1  9000002 0.10000000E+01 0.17400062E+03</pdfrwt>
<totfact> 0.10000000E+01</totfact>
</mgrwt>
</event>
<event>
 6   1  0.1010085E+08  0.1740011E+03  0.7818608E-02  0.1078737E+00
       11   -1    0    0    0    0  0.00000000000E+00  0.00000000000E+00  0.10499998757E+01  0.10500000000E+01  0.51100000000E-03 0.  1.
  9000002   -1    0    0    0    0  0.00000000000E+00  0.00000000000E+00 -0.50581761002E-12  0.17400000000E+03  0.17400000000E+03 0.  1.
       11    1    1    2    0    0  0.69639868227E-02 -0.10022593902E-01  0.60691069680E+00  0.60703361069E+00  0.51100000000E-03 0.  1.
  9000002    1    1    2    0    0 -0.41297196857E-02  0.32107184327E-02  0.35216448621E-03  0.17400000008E+03  0.17400000000E+03 0.  1.
       11    1    1    2    0    0 -0.43875751732E-03 -0.76954081133E-03  0.30338426721E+00  0.30338599079E+00  0.51100000000E-03 0.  1.
      -11    1    1    2    0    0 -0.23955096197E-02  0.75814162807E-02  0.13935274716E+00  0.13958031953E+00  0.51100000000E-03 0. -1.
<mgrwt>
<rscale>  0 0.17400105E+03</rscale>
<asrwt>0</asrwt>
<pdfrwt beam="1">  1       11 0.10000000E+01 0.17400105E+03</pdfrwt>
<pdfrwt beam="2">  1  9000002 0.10000000E+01 0.17400105E+03</pdfrwt>
<totfact> 0.10000000E+01</totfact>
</mgrwt>
</event>
<event>
 6   1  0.1010085E+08  0.1740018E+03  0.7818608E-02  0.1078736E+00
       11   -1    0    0    0    0  0.00000000000E+00  0.00000000000E+00  0.10499998757E+01  0.10500000000E+01  0.51100000000E-03 0.  1.
  9000002   -1    0    0    0    0  0.00000000000E+00  0.00000000000E+00 -0.50581761002E-12  0.17400000000E+03  0.17400000000E+03 0. -1.
       11    1    1    2    0    0  0.54317625442E-02 -0.14435495962E-01  0.78748854051E+00  0.78763973373E+00  0.51100000000E-03 0.  1.
  9000002    1    1    2    0    0  0.17432216749E-01 -0.22280535318E-02  0.19821496069E-02  0.17400000090E+03  0.17400000000E+03 0. -1.
       11    1    1    2    0    0 -0.22154649235E-02  0.28828157394E-02  0.85381753953E-01  0.85460657269E-01  0.51100000000E-03 0.  1.
      -11    1    1    2    0    0 -0.20648514369E-01  0.13780733754E-01  0.17514743158E+00  0.17689871022E+00  0.51100000000E-03 0. -1.
<mgrwt>
<rscale>  0 0.17400177E+03</rscale>
<asrwt>0</asrwt>
<pdfrwt beam="1">  1       11 0.10000000E+01 0.17400177E+03</pdfrwt>
<pdfrwt beam="2">  1  9000002 0.10000000E+01 0.17400177E+03</pdfrwt>
<totfact> 0.10000000E+01</totfact>
</mgrwt>
</event>
<event>
 6   1  0.1010085E+08  0.1740021E+03  0.7818608E-02  0.1078736E+00
       11   -1    0    0    0    0  0.00000000000E+00  0.00000000000E+00  0.10499998757E+01  0.10500000000E+01  0.51100000000E-03 0.  1.
  9000002   -1    0    0    0    0  0.00000000000E+00  0.00000000000E+00 -0.50581761002E-12  0.17400000000E+03  0.17400000000E+03 0.  1.
       11    1    1    2    0    0  0.47377814847E-03  0.33690791407E-02  0.14547235103E+00  0.14551302758E+00  0.51100000000E-03 0.  1.
  9000002    1    1    2    0    0  0.17985303417E-02  0.37428162182E-02  0.19421399656E-03  0.17400000005E+03  0.17400000000E+03 0.  1.
       11    1    1    2    0    0 -0.16087972359E-02  0.24130935269E-02  0.43080396467E-01  0.43180932459E-01  0.51100000000E-03 0. -1.
      -11    1    1    2    0    0 -0.66351125428E-03 -0.95249888858E-02  0.86125291416E+00  0.86130599030E+00  0.51100000000E-03 0.  1.
<mgrwt>
<rscale>  0 0.17400211E+03</rscale>
<asrwt>0</asrwt>
<pdfrwt beam="1">  1       11 0.10000000E+01 0.17400211E+03</pdfrwt>
<pdfrwt beam="2">  1  9000002 0.10000000E+01 0.17400211E+03</pdfrwt>
<totfact> 0.10000000E+01</totfact>
</mgrwt>
</event>
<event>
 6   1  0.1010085E+08  0.1740005E+03  0.7818608E-02  0.1078737E+00
       11   -1    0    0    0    0  0.00000000000E+00  0.00000000000E+00  0.10499998757E+01  0.10500000000E+01  0.51100000000E-03 0.  1.
  9000002   -1    0    0    0    0  0.00000000000E+00  0.00000000000E+00 -0.50581761002E-12  0.17400000000E+03  0.17400000000E+03 0. -1.
       11    1    1    2    0    0 -0.22273541407E-01 -0.29001843046E-01  0.43508700717E+00  0.43662132618E+00  0.51100000000E-03 0.  1.
  9000002    1    1    2    0    0  0.52285774650E-01  0.91191494788E-01  0.89360217829E-02  0.17400003198E+03  0.17400000000E+03 0. -1.
       11    1    1    2    0    0  0.15067097907E-02 -0.13712647442E-02  0.29096656683E+00  0.29097414777E+00  0.51100000000E-03 0.  1.
      -11    1    1    2    0    0 -0.31518943033E-01 -0.60818386999E-01  0.31501027987E+00  0.32237254460E+00  0.51100000000E-03 0. -1.
<mgrwt>
<rscale>  0 0.17400055E+03</rscale>
<asrwt>0</asrwt>
<pdfrwt beam="1">  1       11 0.10000000E+01 0.17400055E+03</pdfrwt>
<pdfrwt beam="2">  1  9000002 0.10000000E+01 0.17400055E+03</pdfrwt>
<totfact> 0.10000000E+01</totfact>
</mgrwt>
</event>
<event>
 6   1  0.1010085E+08  0.1740010E+03  0.7818608E-02  0.1078737E+00
       11   -1    0    0    0    0  0.00000000000E+00  0.00000000000E+00  0.10499998757E+01  0.10500000000E+01  0.51100000000E-03 0. -1.
  9000002   -1    0    0    0    0  0.00000000000E+00  0.00000000000E+00 -0.50581761002E-12  0.17400000000E+03  0.17400000000E+03 0.  1.
       11    1    1    2    0    0 -0.52722556378E-02 -0.95468218287E-02  0.11259064732E+00  0.11311875825E+00  0.51100000000E-03 0. -1.
  9000002    1    1    2    0    0  0.72824902827E-02  0.81786739623E-02  0.80924403775E-03  0.17400000035E+03  0.17400000000E+03 0.  1.
       11    1    1    2    0    0  0.50154347930E-02  0.99649873636E-02  0.35789548443E+00  0.35806967821E+00  0.51100000000E-03 0. -1.
      -11    1    1    2    0    0 -0.70256694379E-02 -0.85968394972E-02  0.57870449987E+00  0.57881121704E+00  0.51100000000E-03 0.  1.
<mgrwt>
<rscale>  0 0.17400096E+03</rscale>
<asrwt>0</asrwt>
<pdfrwt beam="1">  1       11 0.10000000E+01 0.17400096E+03</pdfrwt>
<pdfrwt beam="2">  1  9000002 0.10000000E+01 0.17400096E+03</pdfrwt>
<totfact> 0.10000000E+01</totfact>
</mgrwt>
</event>
<event>
 6   1  0.1010085E+08  0.1740009E+03  0.7818608E-02  0.1078737E+00
       11   -1    0    0    0    0  0.00000000000E+00  0.00000000000E+00  0.10499998757E+01  0.10500000000E+01  0.51100000000E-03 0.  1.
  9000002   -1    0    0    0    0  0.00000000000E+00  0.00000000000E+00 -0.50581761002E-12  0.17400000000E+03  0.17400000000E+03 0. -1.
       11    1    1    2    0    0 -0.83399180712E-03  0.57041109906E-03  0.38536700432E+00  0.38536866771E+00  0.51100000000E-03 0.  1.
  9000002    1    1    2    0    0  0.48927703502E-03 -0.37945218573E-02  0.64999919758E-03  0.17400000004E+03  0.17400000000E+03 0. -1.
       11    1    1    2    0    0 -0.14532625253E-02 -0.93723808479E-02  0.88626217799E-01  0.89133725913E-01  0.51100000000E-03 0. -1.
      -11    1    1    2    0    0  0.17979772974E-02  0.12596491606E-01  0.57535665434E+00  0.57549756310E+00  0.51100000000E-03 0.  1.
<mgrwt>
<rscale>  0 0.17400095E+03</rscale>
<asrwt>0</asrwt>
<pdfrwt beam="1">  1       11 0.10000000E+01 0.17400095E+03</pdfrwt>
<pdfrwt beam="2">  1  9000002 0.10000000E+01 0.17400095E+03</pdfrwt>
<totfact> 0.10000000E+01</totfact>
</mgrwt>
</event>
<event>
 6   1  0.1010085E+08  0.1740010E+03  0.7818608E-02  0.1078737E+00
       11   -1    0    0    0    0  0.00000000000E+00  0.00000000000E+00  0.10499998757E+01  0.10500000000E+01  0.51100000000E-03 0.  1.
  9000002   -1    0    0    0    0  0.00000000000E+00  0.00000000000E+00 -0.50581761002E-12  0.17400000000E+03  0.17400000000E+03 0. -1.
       11    1    1    2    0    0 -0.10156709636E-01 -0.25754615369E-01  0.60500739683E+00  0.60564071057E+00  0.51100000000E-03 0.  1.
  9000002    1    1    2    0    0  0.56499814351E-02 -0.15029181361E-01  0.28248668417E-02  0.17400000076E+03  0.17400000000E+03 0. -1.
       11    1    1    2    0    0  0.40294896670E-03  0.78803672871E-02  0.16907421803E+00  0.16925901713E+00  0.51100000000E-03 0. -1.
      -11    1    1    2    0    0  0.41037792340E-02  0.32903429443E-01  0.27309339395E+00  0.27509950857E+00  0.51100000000E-03 0.  1.
<mgrwt>
<rscale>  0 0.17400105E+03</rscale>
<asrwt>0</asrwt>
<pdfrwt beam="1">  1       11 0.10000000E+01 0.17400105E+03</pdfrwt>
<pdfrwt beam="2">  1  9000002 0.10000000E+01 0.17400105E+03</pdfrwt>
<totfact> 0.10000000E+01</totfact>
</mgrwt>
</event>
<event>
 6   1  0.1010085E+08  0.1740018E+03  0.7818608E-02  0.1078736E+00
       11   -1    0    0    0    0  0.00000000000E+00  0.00000000000E+00  0.10499998757E+01  0.10500000000E+01  0.51100000000E-03 0. -1.
  9000002   -1    0    0    0    0  0.00000000000E+00  0.00000000000E+00 -0.50581761002E-12  0.17400000000E+03  0.17400000000E+03 0.  1.
       11    1    1    2    0    0  0.65642655603E-02 -0.16476790207E-02  0.75965758858E-01  0.76268355602E-01  0.51100000000E-03 0.  1.
  9000002    1    1    2    0    0 -0.73175601352E-02 -0.19977852810E-01  0.30731983896E-02  0.17400000133E+03  0.17400000000E+03 0.  1.
       11    1    1    2    0    0  0.50074306723E-02 -0.82582215805E-02  0.80423953462E+00  0.80429768292E+00  0.51100000000E-03 0. -1.
      -11    1    1    2    0    0 -0.42541360975E-02  0.29883753411E-01  0.16672138379E+00  0.16943263358E+00  0.51100000000E-03 0. -1.
<mgrwt>
<rscale>  0 0.17400184E+03</rscale>
<asrwt>0</asrwt>
<pdfrwt beam="1">  1       11 0.10000000E+01 0.17400184E+03</pdfrwt>
<pdfrwt beam="2">  1  9000002 0.10000000E+01 0.17400184E+03</pdfrwt>
<totfact> 0.10000000E+01</totfact>
</mgrwt>
</event>
<event>
 6   1  0.1010085E+08  0.1740011E+03  0.7818608E-02  0.1078737E+00
       11   -1    0    0    0    0  0.00000000000E+00  0.00000000000E+00  0.10499998757E+01  0.10500000000E+01  0.51100000000E-03 0. -1.
  9000002   -1    0    0    0    0  0.00000000000E+00  0.00000000000E+00 -0.50581761002E-12  0.17400000000E+03  0.17400000000E+03 0.  1.
       11    1    1    2    0    0 -0.70964726106E-02 -0.38346031705E-02  0.33237782236E-01  0.34206364829E-01  0.51100000000E-03 0. -1.
  9000002    1    1    2    0    0  0.87034927625E-02  0.34554377937E-02  0.11001911177E-02  0.17400000026E+03  0.17400000000E+03 0.  1.
       11    1    1    2    0    0 -0.20559373700E-02  0.80886803442E-02  0.61387975452E+00  0.61393669687E+00  0.51100000000E-03 0. -1.
      -11    1    1    2    0    0  0.44891721808E-03 -0.77095149674E-02  0.40178214778E+00  0.40185668284E+00  0.51100000000E-03 0.  1.
<mgrwt>
<rscale>  0 0.17400108E+03</rscale>
<asrwt>0</asrwt>
<pdfrwt beam="1">  1       11 0.10000000E+01 0.17400108E+03</pdfrwt>
<pdfrwt beam="2">  1  9000002 0.10000000E+01 0.17400108E+03</pdfrwt>
<totfact> 0.10000000E+01</totfact>
</mgrwt>
</event>
<event>
 6   1  0.1010085E+08  0.1740020E+03  0.7818608E-02  0.1078736E+00
       11   -1    0    0    0    0  0.00000000000E+00  0.00000000000E+00  0.10499998757E+01  0.10500000000E+01  0.51100000000E-03 0.  1.
  9000002   -1    0    0    0    0  0.00000000000E+00  0.00000000000E+00 -0.50581761002E-12  0.17400000000E+03  0.17400000000E+03 0. -1.
       11    1    1    2    0    0 -0.25995138069E-02  0.61758322087E-02  0.15857132132E+00  0.15871365234E+00  0.51100000000E-03 0.  1.
  9000002    1    1    2    0    0 -0.32639843719E-02 -0.38225734866E-02  0.26194631700E-02  0.17400000009E+03  0.17400000000E+03 0. -1.
       11    1    1    2    0    0  0.48113832469E-02 -0.18986031217E-01  0.82802339042E+00  0.82825516297E+00  0.51100000000E-03 0.  1.
      -11    1    1    2    0    0  0.10521149319E-02  0.16632772495E-01  0.60785700748E-01  0.63031092366E-01  0.51100000000E-03 0. -1.
<mgrwt>
<rscale>  0 0.17400195E+03</rscale>
<asrwt>0</asrwt>
<pdfrwt beam="1">  1       11 0.10000000E+01 0.17400195E+03</pdfrwt>
<pdfrwt beam="2">  1  9000002 0.10000000E+01 0.17400195E+03</pdfrwt>
<totfact> 0.10000000E+01</totfact>
</mgrwt>
</event>
<event>
 6   1  0.1010085E+08  0.1740014E+03  0.7818608E-02  0.1078736E+00
       11   -1    0    0    0    0  0.00000000000E+00  0.00000000000E+00  0.10499998757E+01  0.10500000000E+01  0.51100000000E-03 0. -1.
  9000002   -1    0    0    0    0  0.00000000000E+00  0.00000000000E+00 -0.50581761002E-12  0.17400000000E+03  0.17400000000E+03 0.  1.
       11    1    1    2    0    0 -0.14934252847E-01  0.80585246046E-03  0.81094683712E-01  0.82463871805E-01  0.51100000000E-03 0.  1.
  9000002    1    1    2    0    0  0.14401073758E-01  0.47895123301E-02  0.21153785603E-02  0.17400000067E+03  0.17400000000E+03 0.  1.
       11    1    1    2    0    0  0.31574081161E-02 -0.18050308116E-01  0.26647461033E+00  0.26710440266E+00  0.51100000000E-03 0. -1.
      -11    1    1    2    0    0 -0.26242290266E-02  0.12454943326E-01  0.70031520306E+00  0.70043105081E+00  0.51100000000E-03 0. -1.
<mgrwt>
<rscale>  0 0.17400140E+03</rscale>
<asrwt>0</asrwt>
<pdfrwt beam="1">  1       11 0.10000000E+01 0.17400140E+03</pdfrwt>
<pdfrwt beam="2">  1  9000002 0.10000000E+01 0.17400140E+03</pdfrwt>
<totfact> 0.10000000E+01</totfact>
</mgrwt>
</event>
<event>
 6   1  0.1010085E+08  0.1740005E+03  0.7818608E-02  0.1078737E+00
       11   -1    0    0    0    0  0.00000000000E+00  0.00000000000E+00  0.10499998757E+01  0.10500000000E+01  0.51100000000E-03 0.  1.
  9000002   -1    0    0    0    0  0.00000000000E+00  0.00000000000E+00 -0.50581761002E-12  0.17400000000E+03  0.17400000000E+03 0. -1.
       11    1    1    2    0    0 -0.20516827019E-01  0.20557200197E-01  0.23400753146E+00  0.23580357200E+00  0.51100000000E-03 0. -1.
  9000002    1    1    2    0    0  0.31013094069E-02 -0.76402430869E-02  0.24244913226E-02  0.17400000021E+03  0.17400000000E+03 0. -1.
       11    1    1    2    0    0  0.74592553257E-03  0.31956393166E-02  0.37574168044E+00  0.37575635731E+00  0.51100000000E-03 0.  1.
      -11    1    1    2    0    0  0.16669592079E-01 -0.16112596426E-01  0.43782617244E+00  0.43843985842E+00  0.51100000000E-03 0.  1.
<mgrwt>
<rscale>  0 0.17400055E+03</rscale>
<asrwt>0</asrwt>
<pdfrwt beam="1">  1       11 0.10000000E+01 0.17400055E+03</pdfrwt>
<pdfrwt beam="2">  1  9000002 0.10000000E+01 0.17400055E+03</pdfrwt>
<totfact> 0.10000000E+01</totfact>
</mgrwt>
</event>
<event>
 6   1  0.1010085E+08  0.1740005E+03  0.7818608E-02  0.1078737E+00
       11   -1    0    0    0    0  0.00000000000E+00  0.00000000000E+00  0.10499998757E+01  0.10500000000E+01  0.51100000000E-03 0. -1.
  9000002   -1    0    0    0    0  0.00000000000E+00  0.00000000000E+00 -0.50581761002E-12  0.17400000000E+03  0.17400000000E+03 0.  1.
       11    1    1    2    0    0  0.12744390014E-02  0.10502082959E-01  0.35956914900E+00  0.35972510612E+00  0.51100000000E-03 0.  1.
  9000002    1    1    2    0    0 -0.39148729304E-03  0.32316886901E-03  0.24384621230E-03  0.17400000000E+03  0.17400000000E+03 0.  1.
       11    1    1    2    0    0 -0.13789844922E-03 -0.33474463223E-02  0.25985451039E+00  0.25987660938E+00  0.51100000000E-03 0. -1.
      -11    1    1    2    0    0 -0.74505325916E-03 -0.74778055062E-02  0.43033237006E+00  0.43039828359E+00  0.51100000000E-03 0. -1.
<mgrwt>
<rscale>  0 0.17400053E+03</rscale>
<asrwt>0</asrwt>
<pdfrwt beam="1">  1       11 0.10000000E+01 0.17400053E+03</pdfrwt>
<pdfrwt beam="2">  1  9000002 0.10000000E+01 0.17400053E+03</pdfrwt>
<totfact> 0.10000000E+01</totfact>
</mgrwt>
</event>
<event>
 6   1  0.1053188E+08  0.1740023E+03  0.7818608E-02  0.1078736E+00
       11   -1    0    0    0    0  0.00000000000E+00  0.00000000000E+00  0.10499998757E+01  0.10500000000E+01  0.51100000000E-03 0. -1.
  9000002   -1    0    0    0    0  0.00000000000E+00  0.00000000000E+00 -0.50581761002E-12  0.17400000000E+03  0.17400000000E+03 0. -1.
       11    1    1    2    0    0 -0.13779296265E-02  0.12700696126E-01  0.90884227289E+00  0.90893220015E+00  0.51100000000E-03 0. -1.
  9000002    1    1    2    0    0  0.10879688874E-02 -0.36082454113E-02  0.12403083409E-02  0.17400000005E+03  0.17400000000E+03 0. -1.
       11    1    1    2    0    0 -0.21512172204E-02  0.32845883950E-02  0.14991704162E-01  0.15505759288E-01  0.51100000000E-03 0. -1.
      -11    1    1    2    0    0  0.24411779596E-02 -0.12377039109E-01  0.12492559027E+00  0.12556199533E+00  0.51100000000E-03 0.  1.
<mgrwt>
<rscale>  0 0.17400235E+03</rscale>
<asrwt>0</asrwt>
<pdfrwt beam="1">  1       11 0.10000000E+01 0.17400235E+03</pdfrwt>
<pdfrwt beam="2">  1  9000002 0.10000000E+01 0.17400235E+03</pdfrwt>
<totfact> 0.10000000E+01</totfact>
</mgrwt>
</event>
<event>
 6   1  0.1010085E+08  0.1740008E+03  0.7818608E-02  0.1078737E+00
       11   -1    0    0    0    0  0.00000000000E+00  0.00000000000E+00  0.10499998757E+01  0.10500000000E+01  0.51100000000E-03 0. -1.
  9000002   -1    0    0    0    0  0.00000000000E+00  0.00000000000E+00 -0.50581761002E-12  0.17400000000E+03  0.17400000000E+03 0. -1.
       11    1    1    2    0    0  0.12935298416E-02 -0.49404467203E-02  0.35575518577E+00  0.35579220699E+00  0.51100000000E-03 0. -1.
  9000002    1    1    2    0    0 -0.11718011687E-02 -0.17623808979E-02  0.86518517879E-04  0.17400000001E+03  0.17400000000E+03 0. -1.
       11    1    1    2    0    0  0.10524200940E-02 -0.16553994085E-03  0.15199597645E+00  0.15200056898E+00  0.51100000000E-03 0. -1.
      -11    1    1    2    0    0 -0.11741487669E-02  0.68683675591E-02  0.54216219492E+00  0.54220721115E+00  0.51100000000E-03 0.  1.
<mgrwt>
<rscale>  0 0.17400084E+03</rscale>
<asrwt>0</asrwt>
<pdfrwt beam="1">  1       11 0.10000000E+01 0.17400084E+03</pdfrwt>
<pdfrwt beam="2">  1  9000002 0.10000000E+01 0.17400084E+03</pdfrwt>
<totfact> 0.10000000E+01</totfact>
</mgrwt>
</event>
<event>
 6   1  0.1010085E+08  0.1740005E+03  0.7818608E-02  0.1078737E+00
       11   -1    0    0    0    0  0.00000000000E+00  0.00000000000E+00  0.10499998757E+01  0.10500000000E+01  0.51100000000E-03 0.  1.
  9000002   -1    0    0    0    0  0.00000000000E+00  0.00000000000E+00 -0.50581761002E-12  0.17400000000E+03  0.17400000000E+03 0.  1.
       11    1    1    2    0    0  0.50092574886E-02  0.70965233856E-02  0.40362453266E+00  0.40371831491E+00  0.51100000000E-03 0. -1.
  9000002    1    1    2    0    0 -0.19974089251E-03 -0.10655568527E-02  0.51796257770E-03  0.17400000000E+03  0.17400000000E+03 0.  1.
       11    1    1    2    0    0  0.44361784056E-02  0.29252147827E-02  0.43409033911E+00  0.43412316247E+00  0.51100000000E-03 0.  1.
      -11    1    1    2    0    0 -0.92456950017E-02 -0.89561813157E-02  0.21176704130E+00  0.21215851847E+00  0.51100000000E-03 0.  1.
<mgrwt>
<rscale>  0 0.17400054E+03</rscale>
<asrwt>0</asrwt>
<pdfrwt beam="1">  1       11 0.10000000E+01 0.17400054E+03</pdfrwt>
<pdfrwt beam="2">  1  9000002 0.10000000E+01 0.17400054E+03</pdfrwt>
<totfact> 0.10000000E+01</totfact>
</mgrwt>
</event>
<event>
 6   1  0.1010085E+08  0.1740009E+03  0.7818608E-02  0.1078737E+00
       11   -1    0    0    0    0  0.00000000000E+00  0.00000000000E+00  0.10499998757E+01  0.10500000000E+01  0.51100000000E-03 0. -1.
  9000002   -1    0    0    0    0  0.00000000000E+00  0.00000000000E+00 -0.50581761002E-12  0.17400000000E+03  0.17400000000E+03 0. -1.
       11    1    1    2    0    0 -0.10223140811E-02  0.15336491844E-02  0.37259429403E+00  0.37259920325E+00  0.51100000000E-03 0. -1.
  9000002    1    1    2    0    0 -0.20420855950E-01 -0.12400431682E-01  0.11632053069E-02  0.17400000164E+03  0.17400000000E+03 0. -1.
       11    1    1    2    0    0 -0.81803796317E-02  0.14845865513E-02  0.11939633552E+00  0.11968654337E+00  0.51100000000E-03 0.  1.
      -11    1    1    2    0    0  0.29623549663E-01  0.93821959460E-02  0.55684604081E+00  0.55771260931E+00  0.51100000000E-03 0. -1.
<mgrwt>
<rscale>  0 0.17400089E+03</rscale>
<asrwt>0</asrwt>
<pdfrwt beam="1">  1       11 0.10000000E+01 0.17400089E+03</pdfrwt>
<pdfrwt beam="2">  1  9000002 0.10000000E+01 0.17400089E+03</pdfrwt>
<totfact> 0.10000000E+01</totfact>
</mgrwt>
</event>
